 VARIABLES = "X","Y","P","GradP_X","GradP_Y","GradP_Error_X","GradP_Error_Y","V_x","V_y", "DivV","DivV_Exact","DivV_Error","LaplP","LaplP_Exact","LaplP_Error","RotV","RotV_Exact","RotV_Error","VFlos_X","VFlos_Y","T","GradT_X","GradT_Y","ResT","TFlos","T_Error"
 ZONE I=          21 ,J=          21 , DATAPACKING=BLOCK, VARLOCATION=([3-30]=CELLCENTERED)
     0.0000000     0.0500000     0.1000000     0.1500000     0.2000000     0.2500000     0.2600000     0.3100000     0.3600000     0.4100000     0.4600000     0.5100000     0.5600000     0.6100000     0.6600000     0.7100000     0.7600000     0.8100000     0.8600000     0.9100000     1.0000000     0.0000000     0.0500000     0.1000000     0.1500000     0.2000000     0.2500000     0.2642105     0.3142105     0.3642105     0.4142105     0.4642105     0.5142105     0.5642105     0.6142105     0.6642105     0.7142105     0.7642105     0.8142105     0.8642105     0.9142105     1.0000000     0.0000000     0.0500000     0.1000000     0.1500000     0.2000000     0.2500000     0.2684211     0.3184211     0.3684211     0.4184211     0.4684211     0.5184211     0.5684211     0.6184211     0.6684211     0.7184211     0.7684211     0.8184211     0.8684211     0.9184211     1.0000000     0.0000000     0.0500000     0.1000000     0.1500000     0.2000000     0.2500000     0.2726316     0.3226316     0.3726316     0.4226316     0.4726316     0.5226316     0.5726316     0.6226316     0.6726316     0.7226316     0.7726316     0.8226316     0.8726316     0.9226316     1.0000000     0.0000000     0.0500000     0.1000000     0.1500000     0.2000000     0.2500000     0.2768421     0.3268421     0.3768421     0.4268421     0.4768421     0.5268421     0.5768421     0.6268421     0.6768421     0.7268421
     0.7768421     0.8268421     0.8768421     0.9268421     1.0000000     0.0000000     0.0500000     0.1000000     0.1500000     0.2000000     0.2500000     0.2810526     0.3310526     0.3810526     0.4310526     0.4810526     0.5310526     0.5810526     0.6310526     0.6810526     0.7310526     0.7810526     0.8310526     0.8810526     0.9310526     1.0000000     0.0000000     0.0500000     0.1000000     0.1500000     0.2000000     0.2500000     0.2852632     0.3352632     0.3852632     0.4352632     0.4852632     0.5352632     0.5852632     0.6352632     0.6852632     0.7352632     0.7852632     0.8352632     0.8852632     0.9352632     1.0000000     0.0000000     0.0500000     0.1000000     0.1500000     0.2000000     0.2500000     0.2894737     0.3394737     0.3894737     0.4394737     0.4894737     0.5394737     0.5894737     0.6394737     0.6894737     0.7394737     0.7894737     0.8394737     0.8894737     0.9394737     1.0000000     0.0000000     0.0500000     0.1000000     0.1500000     0.2000000     0.2500000     0.2936842     0.3436842     0.3936842     0.4436842     0.4936842     0.5436842     0.5936842     0.6436842     0.6936842     0.7436842     0.7936842     0.8436842     0.8936842     0.9436842     1.0000000     0.0000000     0.0500000     0.1000000     0.1500000     0.2000000     0.2500000     0.2978947     0.3478947     0.3978947     0.4478947     0.4978947
     0.5478947     0.5978947     0.6478947     0.6978947     0.7478947     0.7978947     0.8478947     0.8978947     0.9478947     1.0000000     0.0000000     0.0400000     0.0900000     0.1400000     0.1900000     0.2400000     0.3021053     0.3521053     0.4021053     0.4521053     0.5021053     0.5521053     0.6021053     0.6521053     0.7021053     0.7521053     0.8021053     0.8521053     0.9021053     0.9521053     1.0000000     0.0000000     0.0600000     0.1100000     0.1600000     0.2100000     0.2600000     0.3063158     0.3563158     0.4063158     0.4563158     0.5063158     0.5563158     0.6063158     0.6563158     0.7063158     0.7563158     0.8063158     0.8563158     0.9063158     0.9563158     1.0000000     0.0000000     0.0400000     0.0900000     0.1400000     0.1900000     0.2400000     0.3105263     0.3605263     0.4105263     0.4605263     0.5105263     0.5605263     0.6105263     0.6605263     0.7105263     0.7605263     0.8105263     0.8605263     0.9105263     0.9605263     1.0000000     0.0000000     0.0600000     0.1100000     0.1600000     0.2100000     0.2600000     0.3147368     0.3647368     0.4147368     0.4647368     0.5147368     0.5647368     0.6147368     0.6647368     0.7147368     0.7647368     0.8147368     0.8647368     0.9147368     0.9647368     1.0000000     0.0000000     0.0400000     0.0900000     0.1400000     0.1900000     0.2400000
     0.3189474     0.3689474     0.4189474     0.4689474     0.5189474     0.5689474     0.6189474     0.6689474     0.7189474     0.7689474     0.8189474     0.8689474     0.9189474     0.9689474     1.0000000     0.0000000     0.0600000     0.1100000     0.1600000     0.2100000     0.2600000     0.3231579     0.3731579     0.4231579     0.4731579     0.5231579     0.5731579     0.6231579     0.6731579     0.7231579     0.7731579     0.8231579     0.8731579     0.9231579     0.9731579     1.0000000     0.0000000     0.0400000     0.0900000     0.1400000     0.1900000     0.2400000     0.3273684     0.3773684     0.4273684     0.4773684     0.5273684     0.5773684     0.6273684     0.6773684     0.7273684     0.7773684     0.8273684     0.8773684     0.9273684     0.9773684     1.0000000     0.0000000     0.0600000     0.1100000     0.1600000     0.2100000     0.2600000     0.3315789     0.3815789     0.4315789     0.4815789     0.5315789     0.5815789     0.6315789     0.6815789     0.7315789     0.7815789     0.8315789     0.8815789     0.9315789     0.9815789     1.0000000     0.0000000     0.0400000     0.0900000     0.1400000     0.1900000     0.2400000     0.3357895     0.3857895     0.4357895     0.4857895     0.5357895     0.5857895     0.6357895     0.6857895     0.7357895     0.7857895     0.8357895     0.8857895     0.9357895     0.9857895     1.0000000     0.0000000
     0.0600000     0.1100000     0.1600000     0.2100000     0.2600000     0.3400000     0.3900000     0.4400000     0.4900000     0.5400000     0.5900000     0.6400000     0.6900000     0.7400000     0.7900000     0.8400000     0.8900000     0.9400000     0.9900000     1.0000000     0.0000000     0.0500000     0.1000000     0.1500000     0.2000000     0.2500000     0.3442105     0.3942105     0.4442105     0.4942105     0.5442105     0.5942105     0.6442105     0.6942105     0.7442105     0.7942105     0.8442105     0.8942105     0.9442105     0.9942105     1.0000000
     0.0000000     0.0000000     0.0000000     0.0000000     0.0000000     0.0000000     0.0000000     0.0000000     0.0000000     0.0000000     0.0000000     0.0000000     0.0000000     0.0000000     0.0000000     0.0000000     0.0000000     0.0000000     0.0000000     0.0000000     0.0000000     0.0500000     0.0500000     0.0500000     0.0500000     0.0500000     0.0500000     0.0500000     0.0500000     0.0500000     0.0500000     0.0500000     0.0500000     0.0500000     0.0600000     0.0400000     0.0600000     0.0400000     0.0600000     0.0400000     0.0600000     0.0500000     0.1000000     0.1000000     0.1000000     0.1000000     0.1000000     0.1000000     0.1000000     0.1000000     0.1000000     0.1000000     0.1000000     0.1000000     0.1000000     0.1100000     0.0900000     0.1100000     0.0900000     0.1100000     0.0900000     0.1100000     0.1000000     0.1500000     0.1500000     0.1500000     0.1500000     0.1500000     0.1500000     0.1500000     0.1500000     0.1500000     0.1500000     0.1500000     0.1500000     0.1500000     0.1600000     0.1400000     0.1600000     0.1400000     0.1600000     0.1400000     0.1600000     0.1500000     0.2000000     0.2000000     0.2000000     0.2000000     0.2000000     0.2000000     0.2000000     0.2000000     0.2000000     0.2000000     0.2000000     0.2000000     0.2000000     0.2100000     0.1900000     0.2100000
     0.1900000     0.2100000     0.1900000     0.2100000     0.2000000     0.2500000     0.2500000     0.2500000     0.2500000     0.2500000     0.2500000     0.2500000     0.2500000     0.2500000     0.2500000     0.2500000     0.2500000     0.2500000     0.2600000     0.2400000     0.2600000     0.2400000     0.2600000     0.2400000     0.2600000     0.2500000     0.3000000     0.3000000     0.3000000     0.3000000     0.3000000     0.3000000     0.3000000     0.3000000     0.3000000     0.3000000     0.3000000     0.3000000     0.3000000     0.3100000     0.2900000     0.3100000     0.2900000     0.3100000     0.2900000     0.3100000     0.3000000     0.3500000     0.3500000     0.3500000     0.3500000     0.3500000     0.3500000     0.3500000     0.3500000     0.3500000     0.3500000     0.3500000     0.3500000     0.3500000     0.3600000     0.3400000     0.3600000     0.3400000     0.3600000     0.3400000     0.3600000     0.3500000     0.4000000     0.4000000     0.4000000     0.4000000     0.4000000     0.4000000     0.4000000     0.4000000     0.4000000     0.4000000     0.4000000     0.4000000     0.4000000     0.4100000     0.3900000     0.4100000     0.3900000     0.4100000     0.3900000     0.4100000     0.4000000     0.4500000     0.4500000     0.4500000     0.4500000     0.4500000     0.4500000     0.4500000     0.4500000     0.4500000     0.4500000     0.4500000
     0.4500000     0.4500000     0.4600000     0.4400000     0.4600000     0.4400000     0.4600000     0.4400000     0.4600000     0.4500000     0.5000000     0.5000000     0.5000000     0.5000000     0.5000000     0.5000000     0.5000000     0.5000000     0.5000000     0.5000000     0.5000000     0.5000000     0.5000000     0.5100000     0.4900000     0.5100000     0.4900000     0.5100000     0.4900000     0.5100000     0.5000000     0.5500000     0.5500000     0.5500000     0.5500000     0.5500000     0.5500000     0.5500000     0.5500000     0.5500000     0.5500000     0.5500000     0.5500000     0.5500000     0.5600000     0.5400000     0.5600000     0.5400000     0.5600000     0.5400000     0.5600000     0.5500000     0.6000000     0.6000000     0.6000000     0.6000000     0.6000000     0.6000000     0.6000000     0.6000000     0.6000000     0.6000000     0.6000000     0.6000000     0.6000000     0.6100000     0.5900000     0.6100000     0.5900000     0.6100000     0.5900000     0.6100000     0.6000000     0.6500000     0.6500000     0.6500000     0.6500000     0.6500000     0.6500000     0.6500000     0.6500000     0.6500000     0.6500000     0.6500000     0.6500000     0.6500000     0.6600000     0.6400000     0.6600000     0.6400000     0.6600000     0.6400000     0.6600000     0.6500000     0.7000000     0.7000000     0.7000000     0.7000000     0.7000000     0.7000000
     0.7000000     0.7000000     0.7000000     0.7000000     0.7000000     0.7000000     0.7000000     0.7100000     0.6900000     0.7100000     0.6900000     0.7100000     0.6900000     0.7100000     0.7000000     0.7500000     0.7500000     0.7500000     0.7500000     0.7500000     0.7500000     0.7500000     0.7500000     0.7500000     0.7500000     0.7500000     0.7500000     0.7500000     0.7600000     0.7400000     0.7600000     0.7400000     0.7600000     0.7400000     0.7600000     0.7500000     0.8000000     0.8000000     0.8000000     0.8000000     0.8000000     0.8000000     0.8000000     0.8000000     0.8000000     0.8000000     0.8000000     0.8000000     0.8000000     0.8100000     0.7900000     0.8100000     0.7900000     0.8100000     0.7900000     0.8100000     0.8000000     0.8500000     0.8500000     0.8500000     0.8500000     0.8500000     0.8500000     0.8500000     0.8500000     0.8500000     0.8500000     0.8500000     0.8500000     0.8500000     0.8600000     0.8400000     0.8600000     0.8400000     0.8600000     0.8400000     0.8600000     0.8500000     0.9000000     0.9000000     0.9000000     0.9000000     0.9000000     0.9000000     0.9000000     0.9000000     0.9000000     0.9000000     0.9000000     0.9000000     0.9000000     0.9100000     0.8900000     0.9100000     0.8900000     0.9100000     0.8900000     0.9100000     0.9000000     0.9500000
     0.9500000     0.9500000     0.9500000     0.9500000     0.9500000     0.9500000     0.9500000     0.9500000     0.9500000     0.9500000     0.9500000     0.9500000     0.9600000     0.9400000     0.9600000     0.9400000     0.9600000     0.9400000     0.9600000     0.9500000     1.0000000     1.0000000     1.0000000     1.0000000     1.0000000     1.0000000     1.0000000     1.0000000     1.0000000     1.0000000     1.0000000     1.0000000     1.0000000     1.0000000     1.0000000     1.0000000     1.0000000     1.0000000     1.0000000     1.0000000     1.0000000
     0.1250313     0.2254375     0.3269687     0.4303750     0.5364062     0.6065460     0.6728920     0.7875347     0.9072340     1.0327400     1.1648023     1.3041712     1.4634547     1.6029987     1.7849799     1.9438952     2.1493254     2.3288741     2.5610456     2.8602765     0.2754375     0.3758438     0.4773750     0.5807812     0.6868124     0.7614313     0.8327760     0.9478156     1.0679749     1.1940039     1.3266529     1.4666716     1.6298997     1.7718178     1.9384453     2.1154425     2.3035600     2.5035465     2.7161534     3.0351076     0.4269688     0.5273751     0.6289062     0.7323126     0.8383437     0.9174775     0.9938158     1.1092577     1.2298825     1.3564401     1.4896804     1.6303540     1.7944540     1.9369994     2.1044714     2.2823761     2.4714642     2.6724851     2.8861887     3.1967649     0.5803751     0.6807813     0.7823125     0.8857188     0.9917500     1.0754297     1.1567621     1.2726115     1.3937070     1.5207984     1.6546359     1.7959694     1.9610214     2.1041248     2.2724464     2.4512641     2.6413279     2.8433876     3.0581932     3.3603883     0.7364063     0.8368126     0.9383437     1.0417501     1.1477813     1.2360339     1.3223653     1.4386275     1.5601989     1.6878295     1.8222692     1.9642682     2.1303532     2.2739439     2.4431205     2.6228564     2.8139017     3.0170062     3.2329197     3.5267270
     0.8958126     0.9962188     1.0977499     1.2011563     1.3071876     1.4000375     1.4913757     1.6080561     1.7301087     1.8582840     1.9933314     2.1360011     2.3031988     2.4472084     2.6172452     2.7979045     2.9899356     3.1940904     3.4111168     3.6965320     1.0593438     1.1597500     1.2612811     1.3646874     1.4707186     1.5681877     1.6645441     1.7816479     1.9041872     2.0329123     2.1685727     2.3119187     2.4803090     2.6246672     2.7955699     2.9771576     3.1701818     3.3753910     3.5935349     3.8705492     1.2277502     1.3281564     1.4296874     1.5330936     1.6391249     1.7412328     1.8426206     1.9601533     2.0831847     2.2124646     2.3487434     2.4927707     2.6624341     2.8070714     2.9788454     3.1613669     3.3553879     3.5616574     3.7809258     4.0495291     1.4017813     1.5021876     1.6037185     1.7071249     1.8131561     1.9199209     2.0263557     2.1443224     2.2678514     2.3976915     2.5345941     2.6793079     2.8503253     2.9951720     3.1678214     3.3512833     3.5463064     3.7536416     3.9740386     4.2342205     1.5728683     1.6725148     1.7738998     1.8770849     1.9828198     2.1031446     2.2165000     2.3349061     2.4589376     2.5893440     2.7268751     2.8722811     3.0447321     3.1897185     3.3632495     3.5476563     3.7436874     3.9520934     4.1736250     4.4253731
     1.7810425     1.8701251     1.9716563     2.0750625     2.1810937     2.2860384     2.4138038     2.5326548     2.6571941     2.7881715     2.9263372     3.0724404     3.2464061     3.3914623     3.5658805     3.7512364     3.9482815     4.1577644     4.3804350     4.6237340     1.9572721     2.0655315     2.1670628     2.2704690     2.3765001     2.5041981     2.6190181     2.7383189     2.8633714     2.9949250     3.1337302     3.2805367     3.4560966     3.6011531     3.7764637     3.9627752     4.1608381     4.3714027     4.5952177     4.8300533     2.1813278     2.2695625     2.3710938     2.4745002     2.5805311     2.6948037     2.8328924     2.9526486     3.0782199     3.2103548     3.3498049     3.4973192     3.6745543     3.8195412     3.9957495     4.1830215     4.3821082     4.5937595     4.8187246     5.0450802     2.3737912     2.4829686     2.5844998     2.6879060     2.7939372     2.9312296     3.0561769     3.1763945     3.3024893     3.4352117     3.5753121     3.7235394     3.9025302     4.0473785     4.2244883     4.4127269     4.6128426     4.8255863     5.0517073     5.2695646     2.6192608     2.7065003     2.8080311     2.9114375     3.0174687     3.1410127     3.2896242     3.4103076     3.5369318     3.6702461     3.8110023     3.9599485     4.1407747     4.2854137     4.4634323     4.6526423     4.8537927     5.0676327     5.2949152     5.5042610
     2.8306642     2.9409063     3.0424373     3.1458435     3.2518749     3.3989096     3.5339823     3.6551368     3.7822955     3.9162078     4.0576243     4.2072949     4.3900366     4.5343981     4.7133303     4.9035158     5.1057062     5.3206501     5.5490985     5.7499280     3.1008408     3.1869383     3.2884691     3.3918753     3.4979064     3.6306810     3.7900033     3.9116349     4.0393333     4.1738491     4.3159313     4.4663305     4.6510692     4.7950816     4.9749327     5.1661000     5.3693361     5.5853882     5.8150082     6.0073376     3.3338892     3.4453442     3.5468750     3.6502812     3.7563124     3.9132183     4.0584364     4.1805496     4.3087935     4.4439173     4.5866709     4.7378054     4.9246206     5.0682149     5.2489896     5.4411449     5.6454306     5.8625970     6.0933933     6.2772856     3.6320672     3.7168751     3.8184061     3.9218121     4.0278435     4.1698232     4.3400335     4.4626341     4.5914283     4.7271652     4.8705959     5.0224705     5.2114415     5.3545494     5.5362530     5.7294021     5.9347429     6.1530285     6.3850060     6.5606375     3.9004455     4.0123711     4.1140566     4.2176919     4.3240266     4.4826698     4.6355438     4.7586365     4.8879867     5.0243430     5.1684561     5.3210754     5.4917841     5.6577363     5.8225412     6.0356278     6.2218766     6.4626894     6.6730890     6.8368645
     2.0043747     2.0193744     2.0493755     2.0943754     2.1472120     2.1975141     2.2572131     2.3434222     2.4520502     2.5756843     2.7143121     2.8688979     3.0396821     3.2101369     3.4288533     3.6221313     3.8726883     4.0930471     4.4071765     4.7001524     2.0043752     2.0193753     2.0493736     2.0943754     2.1479831     2.2009344     2.2637935     2.3519905     2.4618819     2.5867813     2.7266793     2.8814595     3.0512304     3.2361562     3.4361560     3.6510265     3.8809216     4.1259613     4.4107933     4.7211671     2.0043766     2.0193732     2.0493751     2.0943758     2.1487637     2.2043736     2.2704542     2.3606679     2.4718184     2.5979779     2.7391431     2.8951993     3.0660646     3.2523367     3.4537740     3.6699336     3.9010847     4.1474237     4.4307103     4.7331796     2.0043776     2.0193727     2.0493774     2.0943704     2.1495554     2.2078376     2.2771950     2.3694468     2.4818728     2.6092882     2.7517111     2.9090192     3.0810337     3.2685401     3.4714012     3.6888115     3.9212418     4.1688151     4.4504967     4.7451882     2.0043745     2.0193741     2.0493774     2.0943735     2.1503496     2.2113326     2.2840197     2.3783381     2.4920146     2.6207144     2.7643833     2.9229724     3.0960824     3.2848511     3.4891241     3.7078249     3.9414866     4.1903200     4.4703517     4.7572570
     2.0043771     2.0193751     2.0493739     2.0943773     2.1511433     2.2148676     2.2909310     2.3873289     2.5022807     2.6322265     2.7771685     2.9370205     3.1112394     3.3012872     3.5069654     3.7269094     3.9618626     4.2119131     4.4903293     4.7693505     2.0043721     2.0193746     2.0493782     2.0943739     2.1519461     2.2184393     2.2979186     2.3964348     2.5126386     2.6438596     2.7900648     2.9511666     3.1265061     3.3178215     3.5249097     3.7461228     3.9823165     4.2336278     4.5103679     4.7815223     2.0043771     2.0193751     2.0493708     2.0943758     2.1527555     2.2220304     2.3050013     2.4056425     2.5231125     2.6555855     2.8030629     2.9654338     3.1418700     3.3344631     3.5429678     3.7654274     4.0028977     4.2554464     4.5304995     4.7937627     2.0043738     2.0193763     2.0493693     2.0943828     2.1535614     2.2256701     2.3121545     2.4149599     2.5336938     2.6674273     2.8161685     2.9797919     3.1573660     3.3511980     3.5611169     3.7848530     4.0235786     4.2773733     4.5507236     4.8060603     2.0037556     2.0173275     2.0456994     2.0892022     2.1485863     2.2256722     2.3181911     2.4243731     2.5443788     2.6793773     2.8293657     2.9942677     3.1729536     3.3680420     3.5794013     3.8043742     4.0443664     4.2993951     4.5710535     4.8184433
     2.0042477     2.0194972     2.0493743     2.0943787     2.1549370     2.2337787     2.3262057     2.4339008     2.5551612     2.6914284     2.8426948     3.0088408     3.1886423     3.3850110     3.5977578     3.8240001     4.0652614     4.3215399     4.5914388     4.8308992     2.0043757     2.0193748     2.0493803     2.0943727     2.1557298     2.2374589     2.3336473     2.4435449     2.5660577     2.7035873     2.8561115     3.0235395     3.2044322     3.4020708     3.6162417     3.8437285     4.0862789     4.3437567     4.6119304     4.8434839     2.0042589     2.0194907     2.0493796     2.0943720     2.1565936     2.2412016     2.3411007     2.4532695     2.5770698     2.7158525     2.8696377     3.0383310     3.2203488     3.4192505     3.6348093     3.8636096     4.1073852     4.3660836     4.6325202     4.8561668     2.0043697     2.0193720     2.0493863     2.0943639     2.1573958     2.2449741     2.3487213     2.4631190     2.5881703     2.7282352     2.8832681     3.0532286     3.2363548     3.4365182     3.6535141     3.8835495     4.1285887     4.3885746     4.6531787     4.8690314     2.0042417     2.0195060     2.0493684     2.0943878     2.1582541     2.2487762     2.3563626     2.4730730     2.5993812     2.7407045     2.8970361     3.0682192     3.2524781     3.4539161     3.6722865     3.9036117     4.1498919     4.4111238     4.6739116     4.8821282
     2.0043728     2.0193748     2.0493863     2.0943699     2.1590707     2.2526333     2.3641291     2.4831343     2.6107061     2.7532930     2.9108586     3.0833526     3.2687032     3.4713659     3.6912251     3.9237502     4.1713548     4.4337883     4.6947103     4.8955417     2.0042536     2.0195000     2.0493684     2.0943878     2.1599231     2.2565241     2.3719492     2.4932969     2.6221330     2.7659879     2.9248178     3.0985639     3.2850220     3.4889853     3.7102087     3.9440379     4.1928754     4.4565353     4.7156124     4.9095707     2.0043750     2.0193775     2.0493765     2.0943720     2.1607599     2.2604523     2.3798788     2.5035763     2.6336758     2.7787652     2.9388926     3.1138802     3.3014710     3.5066891     3.7293196     3.9644108     4.2145100     4.4794517     4.7364674     4.9246454     2.0042179     2.0195417     2.0493624     2.0943818     2.1616218     2.2644160     2.3878808     2.5139387     2.6453125     2.7916784     2.9530468     3.1294210     3.3183479     3.5247200     3.7485988     3.9849465     4.2363529     4.5025482     4.7572732     4.9401269     2.0046880     2.0219262     2.0532067     2.0996926     2.1689949     2.2722023     2.3972216     2.5244343     2.6570606     2.8046842     2.9673219     3.1445012     3.3409753     3.5340707     3.7779188     3.9963160     4.2665720     4.5178580     4.7841873     4.8894668
     3.0043750     3.0043750     3.0043740     3.0043752     3.0043745     3.0040350     3.0036173     3.0042529     3.0042725     3.0042865     3.0042992     3.0042317     3.0052235     3.0038080     3.0048809     3.0036755     3.0049992     3.0035913     3.0022929     3.0116868     3.0193751     3.0193758     3.0193758     3.0193746     3.0193777     3.0197146     3.0186028     3.0191691     3.0191646     3.0191607     3.0191622     3.0191762     3.0214663     3.0190217     3.0194976     3.0189583     3.0195403     3.0189216     3.0181375     3.0295017     3.0493755     3.0493755     3.0493753     3.0493765     3.0493720     3.0500994     3.0486629     3.0491655     3.0491672     3.0491729     3.0491619     3.0491729     3.0530202     3.0491893     3.0491700     3.0491679     3.0491607     3.0491514     3.0472937     3.0603533     3.0943744     3.0943737     3.0943763     3.0943739     3.0943754     3.0953217     3.0937278     3.0941615     3.0941648     3.0941601     3.0941637     3.0941749     3.0995328     3.0942051     3.0941548     3.0941660     3.0941598     3.0941515     3.0925295     3.1063817     3.1543748     3.1543748     3.1543729     3.1543751     3.1543779     3.1554556     3.1538005     3.1541669     3.1541688     3.1541669     3.1541679     3.1541700     3.1610558     3.1542156     3.1541719     3.1541712     3.1541688     3.1541605     3.1527705     3.1673851
     3.2293758     3.2293758     3.2293756     3.2293746     3.2293746     3.2305272     3.2288694     3.2291725     3.2291625     3.2291665     3.2291684     3.2291725     3.2375607     3.2292237     3.2291739     3.2291698     3.2291591     3.2291691     3.2280242     3.2433383     3.3193731     3.3193731     3.3193731     3.3193691     3.3193719     3.3205647     3.3189378     3.3191626     3.3191674     3.3191626     3.3191574     3.3191895     3.3290710     3.3192341     3.3191500     3.3191547     3.3191819     3.3191547     3.3182678     3.3342535     3.4243784     3.4243784     3.4243751     3.4243786     3.4243758     3.4255707     3.4240131     3.4241662     3.4241681     3.4241662     3.4241672     3.4241688     3.4355874     3.4242549     3.4241691     3.4241641     3.4241536     3.4241538     3.4235322     3.4401209     3.5435300     3.5445194     3.5445163     3.5445197     3.5445137     3.5464063     3.5440845     3.5441642     3.5441720     3.5441670     3.5441680     3.5441763     3.5570934     3.5442672     3.5441635     3.5441732     3.5441682     3.5441647     3.5437784     3.5609221     3.6753659     3.6791670     3.6790242     3.6788666     3.6787951     3.6786625     3.6792629     3.6791637     3.6791556     3.6791675     3.6791725     3.6791725     3.6936140     3.6792815     3.6791632     3.6791720     3.6791632     3.6791761     3.6790152     3.6966686
     3.8373375     3.8289890     3.8288558     3.8287036     3.8286233     3.8305361     3.8292890     3.8291645     3.8291745     3.8291671     3.8291638     3.8291850     3.8451188     3.8292730     3.8291717     3.8291667     3.8291631     3.8291667     3.8292887     3.8472946     3.9862239     3.9943533     3.9943748     3.9943719     3.9943628     3.9932740     3.9943700     3.9941652     3.9941673     3.9941640     3.9941609     3.9941771     4.0116453     3.9943066     3.9941726     3.9941638     3.9941871     3.9941697     3.9945302     4.0128117     4.1832309     4.1743526     4.1743793     4.1743765     4.1743674     4.1779537     4.1744466     4.1741762     4.1741667     4.1741710     4.1741695     4.1741757     4.1931434     4.1743298     4.1741629     4.1741643     4.1741347     4.1741543     4.1747971     4.1930914     4.3596859     4.3693585     4.3693652     4.3693771     4.3693652     4.3669844     4.3695278     4.3691616     4.3691745     4.3691688     4.3691645     4.3691792     4.3896852     4.3693385     4.3691478     4.3691788     4.3691745     4.3691888     4.3700442     4.3882518     4.5897713     4.5793338     4.5793824     4.5793705     4.5793762     4.5840406     4.5796223     4.5791664     4.5791664     4.5791440     4.5791688     4.5791664     4.6011457     4.5793405     4.5791769     4.5791693     4.5791669     4.5791636     4.5803056     4.5979757
     4.7931395     4.8043532     4.8043780     4.8043661     4.8043718     4.8006639     4.8047013     4.8041682     4.8041620     4.8041811     4.8041706     4.8041677     4.8277040     4.8043427     4.8041658     4.8041620     4.8041754     4.8042083     4.8055844     4.8222294     5.0563207     5.0443454     5.0443878     5.0443702     5.0443583     5.0500875     5.0448065     5.0441661     5.0441675     5.0441713     5.0441685     5.0441899     5.0691943     5.0443611     5.0441604     5.0441785     5.0441632     5.0441556     5.0458503     5.0607281     5.2865853     5.2993526     5.2993708     5.2993708     5.2993946     5.2943020     5.2998776     5.2991500     5.2991686     5.2991619     5.2991552     5.2991729     5.3257203     5.2993550     5.2991452     5.2991395     5.2991824     5.2991762     5.3010993     5.3127222     5.5848651     5.5696049     5.5697970     5.5699458     5.5696478     5.5751758     5.5699935     5.5691772     5.5691514     5.5691710     5.5691605     5.5691690     5.5931945     5.5684218     5.5679083     5.5681911     5.5678434     5.5682468     5.5694022     5.5723581     5.8128872     5.8171020     5.8172150     5.8173828     5.8179789     5.8132424     5.8173780     5.8165526     5.8165584     5.8165183     5.8165193     5.8165407     5.8308401     5.8183651     5.8167901     5.8184118     5.8166461     5.8185134     5.8205047     5.8096418