 VARIABLES = "X","Y","P","GradP_X","GradP_Y","GradP_Error_X","GradP_Error_Y","V_x","V_y", "DivV","DivV_Exact","DivV_Error","LaplP","LaplP_Exact","LaplP_Error","RotV","RotV_Exact","RotV_Error","VFlos_X","VFlos_Y","T","GradT_X","GradT_Y","ResT","TFlos","T_Error"
 ZONE I=          21 ,J=          21 , DATAPACKING=BLOCK, VARLOCATION=([3-30]=CELLCENTERED)
     0.0000000     0.0500000     0.1000000     0.1500000     0.2000000     0.2500000     0.2600000     0.3100000     0.3600000     0.4100000     0.4600000     0.5100000     0.5600000     0.6100000     0.6600000     0.7100000     0.7600000     0.8100000     0.8600000     0.9100000     1.0000000     0.0000000     0.0500000     0.1000000     0.1500000     0.2000000     0.2500000     0.2642105     0.3142105     0.3642105     0.4142105     0.4642105     0.5142105     0.5642105     0.6142105     0.6642105     0.7142105     0.7642105     0.8142105     0.8642105     0.9142105     1.0000000     0.0000000     0.0500000     0.1000000     0.1500000     0.2000000     0.2500000     0.2684211     0.3184211     0.3684211     0.4184211     0.4684211     0.5184211     0.5684211     0.6184211     0.6684211     0.7184211     0.7684211     0.8184211     0.8684211     0.9184211     1.0000000     0.0000000     0.0500000     0.1000000     0.1500000     0.2000000     0.2500000     0.2726316     0.3226316     0.3726316     0.4226316     0.4726316     0.5226316     0.5726316     0.6226316     0.6726316     0.7226316     0.7726316     0.8226316     0.8726316     0.9226316     1.0000000     0.0000000     0.0500000     0.1000000     0.1500000     0.2000000     0.2500000     0.2768421     0.3268421     0.3768421     0.4268421     0.4768421     0.5268421     0.5768421     0.6268421     0.6768421     0.7268421
     0.7768421     0.8268421     0.8768421     0.9268421     1.0000000     0.0000000     0.0500000     0.1000000     0.1500000     0.2000000     0.2500000     0.2810526     0.3310526     0.3810526     0.4310526     0.4810526     0.5310526     0.5810526     0.6310526     0.6810526     0.7310526     0.7810526     0.8310526     0.8810526     0.9310526     1.0000000     0.0000000     0.0500000     0.1000000     0.1500000     0.2000000     0.2500000     0.2852632     0.3352632     0.3852632     0.4352632     0.4852632     0.5352632     0.5852632     0.6352632     0.6852632     0.7352632     0.7852632     0.8352632     0.8852632     0.9352632     1.0000000     0.0000000     0.0500000     0.1000000     0.1500000     0.2000000     0.2500000     0.2894737     0.3394737     0.3894737     0.4394737     0.4894737     0.5394737     0.5894737     0.6394737     0.6894737     0.7394737     0.7894737     0.8394737     0.8894737     0.9394737     1.0000000     0.0000000     0.0500000     0.1000000     0.1500000     0.2000000     0.2500000     0.2936842     0.3436842     0.3936842     0.4436842     0.4936842     0.5436842     0.5936842     0.6436842     0.6936842     0.7436842     0.7936842     0.8436842     0.8936842     0.9436842     1.0000000     0.0000000     0.0500000     0.1000000     0.1500000     0.2000000     0.2500000     0.2978947     0.3478947     0.3978947     0.4478947     0.4978947
     0.5478947     0.5978947     0.6478947     0.6978947     0.7478947     0.7978947     0.8478947     0.8978947     0.9478947     1.0000000     0.0000000     0.0400000     0.0900000     0.1400000     0.1900000     0.2400000     0.3021053     0.3521053     0.4021053     0.4521053     0.5021053     0.5521053     0.6021053     0.6521053     0.7021053     0.7521053     0.8021053     0.8521053     0.9021053     0.9521053     1.0000000     0.0000000     0.0600000     0.1100000     0.1600000     0.2100000     0.2600000     0.3063158     0.3563158     0.4063158     0.4563158     0.5063158     0.5563158     0.6063158     0.6563158     0.7063158     0.7563158     0.8063158     0.8563158     0.9063158     0.9563158     1.0000000     0.0000000     0.0400000     0.0900000     0.1400000     0.1900000     0.2400000     0.3105263     0.3605263     0.4105263     0.4605263     0.5105263     0.5605263     0.6105263     0.6605263     0.7105263     0.7605263     0.8105263     0.8605263     0.9105263     0.9605263     1.0000000     0.0000000     0.0600000     0.1100000     0.1600000     0.2100000     0.2600000     0.3147368     0.3647368     0.4147368     0.4647368     0.5147368     0.5647368     0.6147368     0.6647368     0.7147368     0.7647368     0.8147368     0.8647368     0.9147368     0.9647368     1.0000000     0.0000000     0.0400000     0.0900000     0.1400000     0.1900000     0.2400000
     0.3189474     0.3689474     0.4189474     0.4689474     0.5189474     0.5689474     0.6189474     0.6689474     0.7189474     0.7689474     0.8189474     0.8689474     0.9189474     0.9689474     1.0000000     0.0000000     0.0600000     0.1100000     0.1600000     0.2100000     0.2600000     0.3231579     0.3731579     0.4231579     0.4731579     0.5231579     0.5731579     0.6231579     0.6731579     0.7231579     0.7731579     0.8231579     0.8731579     0.9231579     0.9731579     1.0000000     0.0000000     0.0400000     0.0900000     0.1400000     0.1900000     0.2400000     0.3273684     0.3773684     0.4273684     0.4773684     0.5273684     0.5773684     0.6273684     0.6773684     0.7273684     0.7773684     0.8273684     0.8773684     0.9273684     0.9773684     1.0000000     0.0000000     0.0600000     0.1100000     0.1600000     0.2100000     0.2600000     0.3315789     0.3815789     0.4315789     0.4815789     0.5315789     0.5815789     0.6315789     0.6815789     0.7315789     0.7815789     0.8315789     0.8815789     0.9315789     0.9815789     1.0000000     0.0000000     0.0400000     0.0900000     0.1400000     0.1900000     0.2400000     0.3357895     0.3857895     0.4357895     0.4857895     0.5357895     0.5857895     0.6357895     0.6857895     0.7357895     0.7857895     0.8357895     0.8857895     0.9357895     0.9857895     1.0000000     0.0000000
     0.0600000     0.1100000     0.1600000     0.2100000     0.2600000     0.3400000     0.3900000     0.4400000     0.4900000     0.5400000     0.5900000     0.6400000     0.6900000     0.7400000     0.7900000     0.8400000     0.8900000     0.9400000     0.9900000     1.0000000     0.0000000     0.0500000     0.1000000     0.1500000     0.2000000     0.2500000     0.3442105     0.3942105     0.4442105     0.4942105     0.5442105     0.5942105     0.6442105     0.6942105     0.7442105     0.7942105     0.8442105     0.8942105     0.9442105     0.9942105     1.0000000
     0.0000000     0.0000000     0.0000000     0.0000000     0.0000000     0.0000000     0.0000000     0.0000000     0.0000000     0.0000000     0.0000000     0.0000000     0.0000000     0.0000000     0.0000000     0.0000000     0.0000000     0.0000000     0.0000000     0.0000000     0.0000000     0.0500000     0.0500000     0.0500000     0.0500000     0.0500000     0.0500000     0.0500000     0.0500000     0.0500000     0.0500000     0.0500000     0.0500000     0.0500000     0.0600000     0.0400000     0.0600000     0.0400000     0.0600000     0.0400000     0.0600000     0.0500000     0.1000000     0.1000000     0.1000000     0.1000000     0.1000000     0.1000000     0.1000000     0.1000000     0.1000000     0.1000000     0.1000000     0.1000000     0.1000000     0.1100000     0.0900000     0.1100000     0.0900000     0.1100000     0.0900000     0.1100000     0.1000000     0.1500000     0.1500000     0.1500000     0.1500000     0.1500000     0.1500000     0.1500000     0.1500000     0.1500000     0.1500000     0.1500000     0.1500000     0.1500000     0.1600000     0.1400000     0.1600000     0.1400000     0.1600000     0.1400000     0.1600000     0.1500000     0.2000000     0.2000000     0.2000000     0.2000000     0.2000000     0.2000000     0.2000000     0.2000000     0.2000000     0.2000000     0.2000000     0.2000000     0.2000000     0.2100000     0.1900000     0.2100000
     0.1900000     0.2100000     0.1900000     0.2100000     0.2000000     0.2500000     0.2500000     0.2500000     0.2500000     0.2500000     0.2500000     0.2500000     0.2500000     0.2500000     0.2500000     0.2500000     0.2500000     0.2500000     0.2600000     0.2400000     0.2600000     0.2400000     0.2600000     0.2400000     0.2600000     0.2500000     0.3000000     0.3000000     0.3000000     0.3000000     0.3000000     0.3000000     0.3000000     0.3000000     0.3000000     0.3000000     0.3000000     0.3000000     0.3000000     0.3100000     0.2900000     0.3100000     0.2900000     0.3100000     0.2900000     0.3100000     0.3000000     0.3500000     0.3500000     0.3500000     0.3500000     0.3500000     0.3500000     0.3500000     0.3500000     0.3500000     0.3500000     0.3500000     0.3500000     0.3500000     0.3600000     0.3400000     0.3600000     0.3400000     0.3600000     0.3400000     0.3600000     0.3500000     0.4000000     0.4000000     0.4000000     0.4000000     0.4000000     0.4000000     0.4000000     0.4000000     0.4000000     0.4000000     0.4000000     0.4000000     0.4000000     0.4100000     0.3900000     0.4100000     0.3900000     0.4100000     0.3900000     0.4100000     0.4000000     0.4500000     0.4500000     0.4500000     0.4500000     0.4500000     0.4500000     0.4500000     0.4500000     0.4500000     0.4500000     0.4500000
     0.4500000     0.4500000     0.4600000     0.4400000     0.4600000     0.4400000     0.4600000     0.4400000     0.4600000     0.4500000     0.5000000     0.5000000     0.5000000     0.5000000     0.5000000     0.5000000     0.5000000     0.5000000     0.5000000     0.5000000     0.5000000     0.5000000     0.5000000     0.5100000     0.4900000     0.5100000     0.4900000     0.5100000     0.4900000     0.5100000     0.5000000     0.5500000     0.5500000     0.5500000     0.5500000     0.5500000     0.5500000     0.5500000     0.5500000     0.5500000     0.5500000     0.5500000     0.5500000     0.5500000     0.5600000     0.5400000     0.5600000     0.5400000     0.5600000     0.5400000     0.5600000     0.5500000     0.6000000     0.6000000     0.6000000     0.6000000     0.6000000     0.6000000     0.6000000     0.6000000     0.6000000     0.6000000     0.6000000     0.6000000     0.6000000     0.6100000     0.5900000     0.6100000     0.5900000     0.6100000     0.5900000     0.6100000     0.6000000     0.6500000     0.6500000     0.6500000     0.6500000     0.6500000     0.6500000     0.6500000     0.6500000     0.6500000     0.6500000     0.6500000     0.6500000     0.6500000     0.6600000     0.6400000     0.6600000     0.6400000     0.6600000     0.6400000     0.6600000     0.6500000     0.7000000     0.7000000     0.7000000     0.7000000     0.7000000     0.7000000
     0.7000000     0.7000000     0.7000000     0.7000000     0.7000000     0.7000000     0.7000000     0.7100000     0.6900000     0.7100000     0.6900000     0.7100000     0.6900000     0.7100000     0.7000000     0.7500000     0.7500000     0.7500000     0.7500000     0.7500000     0.7500000     0.7500000     0.7500000     0.7500000     0.7500000     0.7500000     0.7500000     0.7500000     0.7600000     0.7400000     0.7600000     0.7400000     0.7600000     0.7400000     0.7600000     0.7500000     0.8000000     0.8000000     0.8000000     0.8000000     0.8000000     0.8000000     0.8000000     0.8000000     0.8000000     0.8000000     0.8000000     0.8000000     0.8000000     0.8100000     0.7900000     0.8100000     0.7900000     0.8100000     0.7900000     0.8100000     0.8000000     0.8500000     0.8500000     0.8500000     0.8500000     0.8500000     0.8500000     0.8500000     0.8500000     0.8500000     0.8500000     0.8500000     0.8500000     0.8500000     0.8600000     0.8400000     0.8600000     0.8400000     0.8600000     0.8400000     0.8600000     0.8500000     0.9000000     0.9000000     0.9000000     0.9000000     0.9000000     0.9000000     0.9000000     0.9000000     0.9000000     0.9000000     0.9000000     0.9000000     0.9000000     0.9100000     0.8900000     0.9100000     0.8900000     0.9100000     0.8900000     0.9100000     0.9000000     0.9500000
     0.9500000     0.9500000     0.9500000     0.9500000     0.9500000     0.9500000     0.9500000     0.9500000     0.9500000     0.9500000     0.9500000     0.9500000     0.9600000     0.9400000     0.9600000     0.9400000     0.9600000     0.9400000     0.9600000     0.9500000     1.0000000     1.0000000     1.0000000     1.0000000     1.0000000     1.0000000     1.0000000     1.0000000     1.0000000     1.0000000     1.0000000     1.0000000     1.0000000     1.0000000     1.0000000     1.0000000     1.0000000     1.0000000     1.0000000     1.0000000     1.0000000
     0.1250313     0.2254375     0.3269687     0.4303750     0.5364062     0.6065460     0.6728920     0.7875347     0.9072340     1.0327400     1.1648023     1.3041712     1.4634547     1.6029987     1.7849799     1.9438952     2.1493254     2.3288741     2.5610456     2.8602765     0.2754375     0.3758438     0.4773750     0.5807812     0.6868124     0.7614313     0.8327760     0.9478156     1.0679749     1.1940039     1.3266529     1.4666716     1.6298997     1.7718178     1.9384453     2.1154425     2.3035600     2.5035465     2.7161534     3.0351076     0.4269688     0.5273751     0.6289062     0.7323126     0.8383437     0.9174775     0.9938158     1.1092577     1.2298825     1.3564401     1.4896804     1.6303540     1.7944540     1.9369994     2.1044714     2.2823761     2.4714642     2.6724851     2.8861887     3.1967649     0.5803751     0.6807813     0.7823125     0.8857188     0.9917500     1.0754297     1.1567621     1.2726115     1.3937070     1.5207984     1.6546359     1.7959694     1.9610214     2.1041248     2.2724464     2.4512641     2.6413279     2.8433876     3.0581932     3.3603883     0.7364063     0.8368126     0.9383437     1.0417501     1.1477813     1.2360339     1.3223653     1.4386275     1.5601989     1.6878295     1.8222692     1.9642682     2.1303532     2.2739439     2.4431205     2.6228564     2.8139017     3.0170062     3.2329197     3.5267270
     0.8958126     0.9962188     1.0977499     1.2011563     1.3071876     1.4000375     1.4913757     1.6080561     1.7301087     1.8582840     1.9933314     2.1360011     2.3031988     2.4472084     2.6172452     2.7979045     2.9899356     3.1940904     3.4111168     3.6965320     1.0593438     1.1597500     1.2612811     1.3646874     1.4707186     1.5681877     1.6645441     1.7816479     1.9041872     2.0329123     2.1685727     2.3119187     2.4803090     2.6246672     2.7955699     2.9771576     3.1701818     3.3753910     3.5935349     3.8705492     1.2277502     1.3281564     1.4296874     1.5330936     1.6391249     1.7412328     1.8426206     1.9601533     2.0831847     2.2124646     2.3487434     2.4927707     2.6624341     2.8070714     2.9788454     3.1613669     3.3553879     3.5616574     3.7809258     4.0495291     1.4017813     1.5021876     1.6037185     1.7071249     1.8131561     1.9199209     2.0263557     2.1443224     2.2678514     2.3976915     2.5345941     2.6793079     2.8503253     2.9951720     3.1678214     3.3512833     3.5463064     3.7536416     3.9740386     4.2342205     1.5728683     1.6725148     1.7738998     1.8770849     1.9828198     2.1031446     2.2165000     2.3349061     2.4589376     2.5893440     2.7268751     2.8722811     3.0447321     3.1897185     3.3632495     3.5476563     3.7436874     3.9520934     4.1736250     4.4253731
     1.7810425     1.8701251     1.9716563     2.0750625     2.1810937     2.2860384     2.4138038     2.5326548     2.6571941     2.7881715     2.9263372     3.0724404     3.2464061     3.3914623     3.5658805     3.7512364     3.9482815     4.1577644     4.3804350     4.6237340     1.9572721     2.0655315     2.1670628     2.2704690     2.3765001     2.5041981     2.6190181     2.7383189     2.8633714     2.9949250     3.1337302     3.2805367     3.4560966     3.6011531     3.7764637     3.9627752     4.1608381     4.3714027     4.5952177     4.8300533     2.1813278     2.2695625     2.3710938     2.4745002     2.5805311     2.6948037     2.8328924     2.9526486     3.0782199     3.2103548     3.3498049     3.4973192     3.6745543     3.8195412     3.9957495     4.1830215     4.3821082     4.5937595     4.8187246     5.0450802     2.3737912     2.4829686     2.5844998     2.6879060     2.7939372     2.9312296     3.0561769     3.1763945     3.3024893     3.4352117     3.5753121     3.7235394     3.9025302     4.0473785     4.2244883     4.4127269     4.6128426     4.8255863     5.0517073     5.2695646     2.6192608     2.7065003     2.8080311     2.9114375     3.0174687     3.1410127     3.2896242     3.4103076     3.5369318     3.6702461     3.8110023     3.9599485     4.1407747     4.2854137     4.4634323     4.6526423     4.8537927     5.0676327     5.2949152     5.5042610
     2.8306642     2.9409063     3.0424373     3.1458435     3.2518749     3.3989096     3.5339823     3.6551368     3.7822955     3.9162078     4.0576243     4.2072949     4.3900366     4.5343981     4.7133303     4.9035158     5.1057062     5.3206501     5.5490985     5.7499280     3.1008408     3.1869383     3.2884691     3.3918753     3.4979064     3.6306810     3.7900033     3.9116349     4.0393333     4.1738491     4.3159313     4.4663305     4.6510692     4.7950816     4.9749327     5.1661000     5.3693361     5.5853882     5.8150082     6.0073376     3.3338892     3.4453442     3.5468750     3.6502812     3.7563124     3.9132183     4.0584364     4.1805496     4.3087935     4.4439173     4.5866709     4.7378054     4.9246206     5.0682149     5.2489896     5.4411449     5.6454306     5.8625970     6.0933933     6.2772856     3.6320672     3.7168751     3.8184061     3.9218121     4.0278435     4.1698232     4.3400335     4.4626341     4.5914283     4.7271652     4.8705959     5.0224705     5.2114415     5.3545494     5.5362530     5.7294021     5.9347429     6.1530285     6.3850060     6.5606375     3.9004455     4.0123711     4.1140566     4.2176919     4.3240266     4.4826698     4.6355438     4.7586365     4.8879867     5.0243430     5.1684561     5.3210754     5.4917841     5.6577363     5.8225412     6.0356278     6.2218766     6.4626894     6.6730890     6.8368645
     2.0043747     2.0193744     2.0493755     2.0943754     2.1859586     2.2151632     2.2141936     2.3434222     2.4520502     2.5756843     2.7143121     2.9451561     2.7448370     3.6985459     2.8080838     4.1588306     3.2475035     4.6249852     3.8317418     4.8802576     2.0043755     2.0193746     2.0493743     2.0943754     2.1827252     2.2090397     2.2264063     2.3519905     2.4618835     2.5867798     2.7266793     3.0164580     2.4213812     4.3231483     2.2200060     4.8504019     2.6692736     5.3297272     3.4141045     5.0296254     2.0043774     2.0193739     2.0493751     2.0943758     2.1800964     2.2086821     2.2373512     2.3606679     2.4718184     2.5979807     2.7391403     3.0316463     2.4221876     4.3226976     2.1915889     4.8498535     2.6389070     5.3271713     3.3795841     5.0468354     2.0043755     2.0193727     2.0493774     2.0943735     2.1780493     2.2103617     2.2474508     2.3694468     2.4818728     2.6092882     2.7517111     3.0476654     2.4277792     4.3544087     2.1905866     4.8861494     2.6404259     5.3659902     3.3825414     5.0746555     2.0043745     2.0193727     2.0493774     2.0943749     2.1764967     2.2129180     2.2569532     2.3783381     2.4920175     2.6207085     2.7643862     3.0645573     2.4304271     4.3912830     2.1834793     4.9283695     2.6358430     5.4107385     3.3798971     5.1064978
     2.0043755     2.0193751     2.0493739     2.0943773     2.1753547     2.2159057     2.2660282     2.3873320     2.5022807     2.6322265     2.7771685     3.0822799     2.4301741     4.4333334     2.1702685     4.9764791     2.6251760     5.4613743     3.3717163     5.1430807     2.0043752     2.0193746     2.0493753     2.0943739     2.1745453     2.2191570     2.2747829     2.3964348     2.5126386     2.6438596     2.7900648     3.1008518     2.4269943     4.4805493     2.1509578     5.0305114     2.6083856     5.5179358     3.3579636     5.1853709     2.0043771     2.0193751     2.0493679     2.0943758     2.1740165     2.2225499     2.2833111     2.4056425     2.5231125     2.6555855     2.8030629     3.1202745     2.4209104     4.5329156     2.1255462     5.0904665     2.5854895     5.5804129     3.3386729     5.2345529     2.0043797     2.0193703     2.0493693     2.0943828     2.1737077     2.2260411     2.2916713     2.4149599     2.5336938     2.6674273     2.8161626     3.1405456     2.4119067     4.5904536     2.0940235     5.1563249     2.5564892     5.6488032     3.3138576     5.2921972     1.9480683     2.0673983     2.0456994     2.0892022     2.2066171     2.2272463     2.2584286     2.4243731     2.5443788     2.6793773     2.8293657     3.1616673     2.3999643     4.6531649     2.0564260     5.2280850     2.5214095     5.7230849     3.2834799     5.3604684
     2.1022406     1.9213192     2.0493772     2.0943787     2.0841119     2.2384982     2.3919079     2.4339008     2.5551672     2.6914284     2.8426888     3.1836314     2.3851304     4.7210464     2.0126822     5.3057466     2.4802268     5.8032951     3.2474763     5.4422960     1.9071814     2.1163604     2.0493803     2.0943727     2.2554393     2.2390888     2.2320333     2.4435449     2.5660577     2.7035873     2.8561115     3.2064602     2.3673580     4.7940950     1.9628618     5.3893485     2.4329104     5.8893967     3.2058043     5.5418515     2.1108201     1.9126999     2.0493796     2.0943720     2.0907958     2.2443659     2.4029405     2.4532695     2.5770698     2.7158465     2.8696377     3.2301269     2.3466756     4.8723059     1.9069350     5.4788523     2.3795247     5.9814191     3.1582286     5.6653061     1.8978115     2.1256945     2.0493803     2.0943699     2.2520418     2.2455316     2.2533181     2.4631250     2.5881703     2.7282352     2.8832741     3.2546268     2.3230858     4.9556723     1.8449134     5.5742669     2.3199987     6.0793605     3.1044447     5.8220592     2.1209118     1.9025736     2.0493684     2.0943878     2.0959733     2.2510328     2.4154427     2.4730730     2.5993812     2.7407045     2.8970361     3.2799885     2.2965701     5.0442171     1.7767709     5.6755872     2.2543845     6.1831946     3.0440400     6.0271239
     1.8869456     2.1365218     2.0493743     2.0943758     2.2501106     2.2526610     2.2730472     2.4831343     2.6107061     2.7532930     2.9108586     3.3062084     2.2671454     5.1379366     1.7025311     5.7827959     2.1827083     6.2929840     2.9761820     6.3063149     2.1324930     1.8909626     2.0493624     2.0943818     2.1001039     2.2581928     2.4291220     2.4932969     2.6221330     2.7659879     2.9248178     3.3332632     2.2347772     5.2368298     1.6221778     5.8959498     2.1048775     6.4086323     2.8997304     6.7070589     1.8745857     2.1488569     2.0493705     2.0943720     2.2492847     2.2602100     2.2917652     2.5035763     2.6336758     2.7787652     2.9388926     3.3611681     2.1995201     5.3408546     1.5357493     6.0150051     2.0209675     6.5302200     2.8127959     7.3263130     2.1455762     1.8778496     2.0493624     2.0943758     2.1034894     2.2657146     2.4437423     2.5139446     2.6453125     2.7916784     2.9530468     3.3899288     2.1690848     5.4762025     1.4798036     6.1705356     1.9725089     6.6932917     2.7600713     8.4084463     1.9451592     2.0873303     2.0532186     2.0996926     2.2235568     2.2723835     2.3423316     2.5244343     2.6570606     2.8046961     2.9673100     3.2754288     2.7217288     4.4693584     2.6044118     5.0651608     3.0882299     5.5818338     3.6057081     8.6208239
     3.0043750     3.0043750     3.0043740     3.0043738     3.0043738     2.9895294     3.0071661     3.0041652     3.0041711     3.0041673     3.0041695     2.9976692     3.0606194     2.8889620     3.1381695     2.8750424     3.1491973     2.8634400     3.1557214     2.9476590     3.0193751     3.0193758     3.0193758     3.0193746     3.0193770     3.0102701     3.0217454     3.0191646     3.0191617     3.0191636     3.0191622     3.0078006     3.0367742     2.9973927     3.0406084     2.9981394     3.0294003     3.0094650     2.9969065     3.0708184     3.0493755     3.0493755     3.0493753     3.0493765     3.0493734     3.0434968     3.0514538     3.0491669     3.0491686     3.0491700     3.0491679     3.0376871     3.1072469     2.9590516     3.1554580     2.9498129     3.1554642     2.9498107     3.1357954     3.0391321     3.0943744     3.0943737     3.0943763     3.0943754     3.0943754     3.0904303     3.0962358     3.0941646     3.0941677     3.0941629     3.0941637     3.0824983     3.1545446     3.0027642     3.2020159     2.9933376     3.2020175     2.9933345     3.1824749     3.0835705     3.1543748     3.1543748     3.1543729     3.1543751     3.1543779     3.1516771     3.1560788     3.1541669     3.1541688     3.1541669     3.1541679     3.1422460     3.2171104     3.0610447     3.2641177     3.0513880     3.2641237     3.0513887     3.2446032     3.1426587
     3.2293758     3.2293758     3.2293756     3.2293746     3.2293746     3.2275116     3.2309647     3.2291665     3.2291565     3.2291636     3.2291656     3.2169478     3.2949095     3.1338937     3.3417258     3.1239362     3.3417232     3.1239469     3.3222194     3.2162976     3.3193731     3.3193731     3.3193731     3.3193719     3.3193719     3.3181026     3.3208869     3.3191686     3.3191674     3.3191655     3.3191605     3.3065712     3.3879809     3.2213292     3.4348660     3.2110031     3.4348733     3.2110031     3.4153125     3.3044288     3.4243753     3.4243784     3.4243751     3.4243758     3.4243758     3.4235029     3.4258339     3.4241662     3.4241681     3.4241662     3.4241731     3.4111362     3.4962919     3.3233285     3.5435245     3.3125875     3.5435214     3.3125772     3.5238957     3.4069414     3.4933338     3.4268837     3.4254382     3.4232512     3.4203155     3.4814477     3.5458131     3.5441611     3.5441720     3.5441730     3.5441651     3.5306401     3.6198654     3.4399099     3.6677132     3.4286757     3.6677120     3.4286728     3.6479352     3.5236909     3.8576550     4.0556178     4.0512314     4.0598416     4.0832186     3.8529575     3.6842906     3.6791666     3.6791556     3.6791615     3.6791725     3.6650760     3.7587018     3.5710552     3.8074071     3.5592747     3.8074133     3.5592844     3.7874529     3.6544724
     3.4799957     3.2155681     3.1658525     3.1501229     3.1572695     3.4594321     3.8237636     3.8291616     3.8291745     3.8291671     3.8291638     3.8144686     3.9128013     3.7167797     3.9626522     3.7043853     3.9626498     3.7043853     3.9424512     3.7990091     4.3328547     4.8409204     4.8141232     4.8321271     4.8965507     4.3497524     4.0029292     3.9941652     3.9941673     3.9941640     3.9941609     3.9787693     4.0821228     3.8770905     4.1334143     3.8640025     4.1333981     3.8639967     4.1129479     3.9569676     3.7550902     3.4092937     3.3546271     3.3366175     3.3380539     3.7575717     4.1692371     4.1741700     4.1741724     4.1741710     4.1741757     4.1580286     4.2667189     4.0519586     4.3196530     4.0381446     4.3196554     4.0381517     4.2989264     4.1277051     4.7025824     5.2196546     5.1891198     5.2071323     5.2701941     4.7311816     4.3775563     4.3691673     4.3691688     4.3691688     4.3691645     4.3522100     4.4665766     4.2414031     4.5214667     4.2267990     4.5214748     4.2267919     4.5004716     4.3104777     4.1575785     3.8183436     3.7596278     3.7416153     3.7409835     4.1670170     4.5746450     4.5791664     4.5791664     4.5791497     4.5791626     4.5613508     4.6816688     4.4454083     4.7387981     4.4299507     4.7387948     4.4299278     4.7175732     4.5038452
     5.1317086     5.6589823     5.6241207     5.6421213     5.7044258     5.1695857     4.8123784     4.8041620     4.8041620     4.8041754     4.8041706     4.7853923     4.9120221     4.6640158     4.9716334     4.6476088     4.9716244     4.6476436     4.9502912     4.7055216     4.6194725     4.2879982     4.2246337     4.2066212     4.2043262     4.6363244     5.0399847     5.0441599     5.0441675     5.0441656     5.0441623     5.0244131     5.1576471     4.8971782     5.2200046     4.8797946     5.2200074     4.8797832     5.1987858     4.9112425     5.6202345     6.1589241     6.1191201     6.1371264     6.1990914     5.6658230     5.3073044     5.2991738     5.2991686     5.2991681     5.2991490     5.2783470     5.4185143     5.1449065     5.4838471     5.1264873     5.4838839     5.1264777     5.4630895     5.1121960     5.2026682     4.9997849     4.9327602     4.9171081     4.9165716     5.2516708     5.5652847     5.5691652     5.5691695     5.5691710     5.5691724     5.5472403     5.6559539     5.4725757     5.6717939     5.4640989     5.6594048     5.4766331     5.6258168     5.3023334     5.9605007     6.0904012     6.0820684     6.0890903     6.1108279     5.9747400     5.8595901     5.8541570     5.8541632     5.8541527     5.8541656     5.8431840     5.9656286     5.7089262     6.0472164     5.6831818     6.0593429     5.6705513     6.0756664     5.4111533