 VARIABLES = "X","Y","P","GradP_X","GradP_Y","GradP_Error_X","GradP_Error_Y","V_x","V_y", "DivV","DivV_Exact","DivV_Error","LaplP","LaplP_Exact","LaplP_Error","RotV","RotV_Exact","RotV_Error","VFlos_X","VFlos_Y","T","GradT_X","GradT_Y","ResT","TFlos","T_Error"
 ZONE I=          21 ,J=          21 , DATAPACKING=BLOCK, VARLOCATION=([3-30]=CELLCENTERED)
     0.0000000     0.0500000     0.1000000     0.1500000     0.2000000     0.2500000     0.3000000     0.3500000     0.4000000     0.4500000     0.5000000     0.5500000     0.6000000     0.6500000     0.7000000     0.7500000     0.8000000     0.8500000     0.9000000     0.9500000     1.0000000     0.0000000     0.0500000     0.1000000     0.1500000     0.2000000     0.2500000     0.3000000     0.3500000     0.4000000     0.4500000     0.5000000     0.5500000     0.6000000     0.6500000     0.7000000     0.7500000     0.8000000     0.8500000     0.9000000     0.9500000     1.0000000     0.0000000     0.0500000     0.1000000     0.1500000     0.2000000     0.2500000     0.3000000     0.3500000     0.4000000     0.4500000     0.5000000     0.5500000     0.6000000     0.6500000     0.7000000     0.7500000     0.8000000     0.8500000     0.9000000     0.9500000     1.0000000     0.0000000     0.0500000     0.1000000     0.1500000     0.2000000     0.2500000     0.3000000     0.3500000     0.4000000     0.4500000     0.5000000     0.5500000     0.6000000     0.6500000     0.7000000     0.7500000     0.8000000     0.8500000     0.9000000     0.9500000     1.0000000     0.0000000     0.0500000     0.1000000     0.1500000     0.2000000     0.2500000     0.3000000     0.3500000     0.4000000     0.4500000     0.5000000     0.5500000     0.6000000     0.6500000     0.7000000     0.7500000
     0.8000000     0.8500000     0.9000000     0.9500000     1.0000000     0.0000000     0.0500000     0.1000000     0.1500000     0.2000000     0.2500000     0.3000000     0.3500000     0.4000000     0.4500000     0.5000000     0.5500000     0.6000000     0.6500000     0.7000000     0.7500000     0.8000000     0.8500000     0.9000000     0.9500000     1.0000000     0.0000000     0.0500000     0.1000000     0.1500000     0.2000000     0.2500000     0.3000000     0.3500000     0.4000000     0.4500000     0.5000000     0.5500000     0.6000000     0.6500000     0.7000000     0.7500000     0.8000000     0.8500000     0.9000000     0.9500000     1.0000000     0.0000000     0.0500000     0.1000000     0.1500000     0.2000000     0.2500000     0.3000000     0.3500000     0.4000000     0.4500000     0.5000000     0.5500000     0.6000000     0.6500000     0.7000000     0.7500000     0.8000000     0.8500000     0.9000000     0.9500000     1.0000000     0.0000000     0.0500000     0.1000000     0.1500000     0.2000000     0.2500000     0.3000000     0.3500000     0.4000000     0.4500000     0.5000000     0.5500000     0.6000000     0.6500000     0.7000000     0.7500000     0.8000000     0.8500000     0.9000000     0.9500000     1.0000000     0.0000000     0.0500000     0.1000000     0.1500000     0.2000000     0.2500000     0.3000000     0.3500000     0.4000000     0.4500000     0.5000000
     0.5500000     0.6000000     0.6500000     0.7000000     0.7500000     0.8000000     0.8500000     0.9000000     0.9500000     1.0000000     0.0000000     0.0500000     0.1000000     0.1500000     0.2000000     0.2500000     0.3000000     0.3500000     0.4000000     0.4500000     0.5000000     0.5500000     0.6000000     0.6500000     0.7000000     0.7500000     0.8000000     0.8500000     0.9000000     0.9500000     1.0000000     0.0000000     0.0500000     0.1000000     0.1500000     0.2000000     0.2500000     0.3000000     0.3500000     0.4000000     0.4500000     0.5000000     0.5500000     0.6000000     0.6500000     0.7000000     0.7500000     0.8000000     0.8500000     0.9000000     0.9500000     1.0000000     0.0000000     0.0500000     0.1000000     0.1500000     0.2000000     0.2500000     0.3000000     0.3500000     0.4000000     0.4500000     0.5000000     0.5500000     0.6000000     0.6500000     0.7000000     0.7500000     0.8000000     0.8500000     0.9000000     0.9500000     1.0000000     0.0000000     0.0500000     0.1000000     0.1500000     0.2000000     0.2500000     0.3000000     0.3500000     0.4000000     0.4500000     0.5000000     0.5500000     0.6000000     0.6500000     0.7000000     0.7500000     0.8000000     0.8500000     0.9000000     0.9500000     1.0000000     0.0000000     0.0500000     0.1000000     0.1500000     0.2000000     0.2500000
     0.3000000     0.3500000     0.4000000     0.4500000     0.5000000     0.5500000     0.6000000     0.6500000     0.7000000     0.7500000     0.8000000     0.8500000     0.9000000     0.9500000     1.0000000     0.0000000     0.0500000     0.1000000     0.1500000     0.2000000     0.2500000     0.3000000     0.3500000     0.4000000     0.4500000     0.5000000     0.5500000     0.6000000     0.6500000     0.7000000     0.7500000     0.8000000     0.8500000     0.9000000     0.9500000     1.0000000     0.0000000     0.0500000     0.1000000     0.1500000     0.2000000     0.2500000     0.3000000     0.3500000     0.4000000     0.4500000     0.5000000     0.5500000     0.6000000     0.6500000     0.7000000     0.7500000     0.8000000     0.8500000     0.9000000     0.9500000     1.0000000     0.0000000     0.0500000     0.1000000     0.1500000     0.2000000     0.2500000     0.3000000     0.3500000     0.4000000     0.4500000     0.5000000     0.5500000     0.6000000     0.6500000     0.7000000     0.7500000     0.8000000     0.8500000     0.9000000     0.9500000     1.0000000     0.0000000     0.0500000     0.1000000     0.1500000     0.2000000     0.2500000     0.3000000     0.3500000     0.4000000     0.4500000     0.5000000     0.5500000     0.6000000     0.6500000     0.7000000     0.7500000     0.8000000     0.8500000     0.9000000     0.9500000     1.0000000     0.0000000
     0.0500000     0.1000000     0.1500000     0.2000000     0.2500000     0.3000000     0.3500000     0.4000000     0.4500000     0.5000000     0.5500000     0.6000000     0.6500000     0.7000000     0.7500000     0.8000000     0.8500000     0.9000000     0.9500000     1.0000000     0.0000000     0.0500000     0.1000000     0.1500000     0.2000000     0.2500000     0.3000000     0.3500000     0.4000000     0.4500000     0.5000000     0.5500000     0.6000000     0.6500000     0.7000000     0.7500000     0.8000000     0.8500000     0.9000000     0.9500000     1.0000000
     0.0000000     0.0000000     0.0000000     0.0000000     0.0000000     0.0000000     0.0000000     0.0000000     0.0000000     0.0000000     0.0000000     0.0000000     0.0000000     0.0000000     0.0000000     0.0000000     0.0000000     0.0000000     0.0000000     0.0000000     0.0000000     0.0500000     0.0500000     0.0500000     0.0500000     0.0500000     0.0500000     0.0500000     0.0500000     0.0500000     0.0500000     0.0500000     0.0500000     0.0500000     0.0500000     0.0500000     0.0500000     0.0500000     0.0500000     0.0500000     0.0500000     0.0500000     0.1000000     0.1000000     0.1000000     0.1000000     0.1000000     0.1000000     0.1000000     0.1000000     0.1000000     0.1000000     0.1000000     0.1000000     0.1000000     0.1000000     0.1000000     0.1000000     0.1000000     0.1000000     0.1000000     0.1000000     0.1000000     0.1500000     0.1500000     0.1500000     0.1500000     0.1500000     0.1500000     0.1500000     0.1500000     0.1500000     0.1500000     0.1500000     0.1500000     0.1500000     0.1500000     0.1500000     0.1500000     0.1500000     0.1500000     0.1500000     0.1500000     0.1500000     0.2000000     0.2000000     0.2000000     0.2000000     0.2000000     0.2000000     0.2000000     0.2000000     0.2000000     0.2000000     0.2000000     0.2000000     0.2000000     0.2000000     0.2000000     0.2000000
     0.2000000     0.2000000     0.2000000     0.2000000     0.2000000     0.2500000     0.2500000     0.2500000     0.2500000     0.2500000     0.2500000     0.2500000     0.2500000     0.2500000     0.2500000     0.2500000     0.2500000     0.2500000     0.2500000     0.2500000     0.2500000     0.2500000     0.2500000     0.2500000     0.2500000     0.2500000     0.3000000     0.3000000     0.3000000     0.3000000     0.3000000     0.3000000     0.3000000     0.3000000     0.3000000     0.3000000     0.3000000     0.3000000     0.3000000     0.3000000     0.3000000     0.3000000     0.3000000     0.3000000     0.3000000     0.3000000     0.3000000     0.3500000     0.3500000     0.3500000     0.3500000     0.3500000     0.3500000     0.3500000     0.3500000     0.3500000     0.3500000     0.3500000     0.3500000     0.3500000     0.3500000     0.3500000     0.3500000     0.3500000     0.3500000     0.3500000     0.3500000     0.3500000     0.4000000     0.4000000     0.4000000     0.4000000     0.4000000     0.4000000     0.4000000     0.4000000     0.4000000     0.4000000     0.4000000     0.4000000     0.4000000     0.4000000     0.4000000     0.4000000     0.4000000     0.4000000     0.4000000     0.4000000     0.4000000     0.4500000     0.4500000     0.4500000     0.4500000     0.4500000     0.4500000     0.4500000     0.4500000     0.4500000     0.4500000     0.4500000
     0.4500000     0.4500000     0.4500000     0.4500000     0.4500000     0.4500000     0.4500000     0.4500000     0.4500000     0.4500000     0.5000000     0.5000000     0.5000000     0.5000000     0.5000000     0.5000000     0.5000000     0.5000000     0.5000000     0.5000000     0.5000000     0.5000000     0.5000000     0.5000000     0.5000000     0.5000000     0.5000000     0.5000000     0.5000000     0.5000000     0.5000000     0.5500000     0.5500000     0.5500000     0.5500000     0.5500000     0.5500000     0.5500000     0.5500000     0.5500000     0.5500000     0.5500000     0.5500000     0.5500000     0.5500000     0.5500000     0.5500000     0.5500000     0.5500000     0.5500000     0.5500000     0.5500000     0.6000000     0.6000000     0.6000000     0.6000000     0.6000000     0.6000000     0.6000000     0.6000000     0.6000000     0.6000000     0.6000000     0.6000000     0.6000000     0.6000000     0.6000000     0.6000000     0.6000000     0.6000000     0.6000000     0.6000000     0.6000000     0.6500000     0.6500000     0.6500000     0.6500000     0.6500000     0.6500000     0.6500000     0.6500000     0.6500000     0.6500000     0.6500000     0.6500000     0.6500000     0.6500000     0.6500000     0.6500000     0.6500000     0.6500000     0.6500000     0.6500000     0.6500000     0.7000000     0.7000000     0.7000000     0.7000000     0.7000000     0.7000000
     0.7000000     0.7000000     0.7000000     0.7000000     0.7000000     0.7000000     0.7000000     0.7000000     0.7000000     0.7000000     0.7000000     0.7000000     0.7000000     0.7000000     0.7000000     0.7500000     0.7500000     0.7500000     0.7500000     0.7500000     0.7500000     0.7500000     0.7500000     0.7500000     0.7500000     0.7500000     0.7500000     0.7500000     0.7500000     0.7500000     0.7500000     0.7500000     0.7500000     0.7500000     0.7500000     0.7500000     0.8000000     0.8000000     0.8000000     0.8000000     0.8000000     0.8000000     0.8000000     0.8000000     0.8000000     0.8000000     0.8000000     0.8000000     0.8000000     0.8000000     0.8000000     0.8000000     0.8000000     0.8000000     0.8000000     0.8000000     0.8000000     0.8500000     0.8500000     0.8500000     0.8500000     0.8500000     0.8500000     0.8500000     0.8500000     0.8500000     0.8500000     0.8500000     0.8500000     0.8500000     0.8500000     0.8500000     0.8500000     0.8500000     0.8500000     0.8500000     0.8500000     0.8500000     0.9000000     0.9000000     0.9000000     0.9000000     0.9000000     0.9000000     0.9000000     0.9000000     0.9000000     0.9000000     0.9000000     0.9000000     0.9000000     0.9000000     0.9000000     0.9000000     0.9000000     0.9000000     0.9000000     0.9000000     0.9000000     0.9500000
     0.9500000     0.9500000     0.9500000     0.9500000     0.9500000     0.9500000     0.9500000     0.9500000     0.9500000     0.9500000     0.9500000     0.9500000     0.9500000     0.9500000     0.9500000     0.9500000     0.9500000     0.9500000     0.9500000     0.9500000     1.0000000     1.0000000     1.0000000     1.0000000     1.0000000     1.0000000     1.0000000     1.0000000     1.0000000     1.0000000     1.0000000     1.0000000     1.0000000     1.0000000     1.0000000     1.0000000     1.0000000     1.0000000     1.0000000     1.0000000     1.0000000
     0.2537500     0.4137500     0.5837500     0.7637500     0.9537498     1.1537501     1.3637500     1.5837502     1.8137501     2.0537500     2.3037500     2.5637503     2.8337500     3.1137497     3.4037504     3.7037501     4.0137501     4.3337507     4.6637506     5.0037503     0.6237500     0.7837501     0.9537500     1.1337500     1.3237498     1.5237501     1.7337501     1.9537503     2.1837502     2.4237502     2.6737502     2.9337502     3.2037501     3.4837499     3.7737505     4.0737505     4.3837504     4.7037506     5.0337505     5.3737507     1.0137502     1.1737502     1.3437500     1.5237501     1.7137501     1.9137499     2.1237500     2.3437500     2.5737503     2.8137498     3.0637503     3.3237503     3.5937500     3.8737502     4.1637502     4.4637499     4.7737503     5.0937500     5.4237499     5.7637501     1.4237502     1.5837501     1.7537498     1.9337502     2.1237502     2.3237500     2.5337501     2.7537498     2.9837503     3.2237499     3.4737499     3.7337503     4.0037498     4.2837496     4.5737495     4.8737497     5.1837502     5.5037498     5.8337498     6.1737504     1.8537501     2.0137501     2.1837499     2.3637502     2.5537500     2.7537498     2.9637499     3.1837497     3.4137502     3.6537497     3.9037499     4.1637502     4.4337502     4.7137499     5.0037498     5.3037500     5.6137505     5.9337502     6.2637496     6.6037502
     2.3037500     2.4637499     2.6337497     2.8137503     3.0037501     3.2037501     3.4137499     3.6337500     3.8637502     4.1037502     4.3537498     4.6137505     4.8837500     5.1637497     5.4537506     5.7537498     6.0637503     6.3837500     6.7137499     7.0537505     2.7737501     2.9337502     3.1037495     3.2837496     3.4737499     3.6737502     3.8837497     4.1037502     4.3337498     4.5737505     4.8237500     5.0837507     5.3537498     5.6337504     5.9237504     6.2237501     6.5337501     6.8537502     7.1837492     7.5237503     3.2637503     3.4237504     3.5937498     3.7737498     3.9637496     4.1637497     4.3737497     4.5937500     4.8237500     5.0637503     5.3137498     5.5737505     5.8437500     6.1237497     6.4137502     6.7137499     7.0237503     7.3437500     7.6737499     8.0137501     3.7737503     3.9337502     4.1037493     4.2837501     4.4737501     4.6737499     4.8837500     5.1037498     5.3337502     5.5737500     5.8237495     6.0837498     6.3537502     6.6337500     6.9237499     7.2237496     7.5337496     7.8537502     8.1837492     8.5237503     4.3037500     4.4637499     4.6337495     4.8137503     5.0037498     5.2037497     5.4137502     5.6337500     5.8637500     6.1037502     6.3537498     6.6137505     6.8837504     7.1637497     7.4537506     7.7537498     8.0637503     8.3837509     8.7137499     9.0537500
     4.8537502     5.0137506     5.1837497     5.3637495     5.5537500     5.7537498     5.9637494     6.1837497     6.4137497     6.6537495     6.9037495     7.1637497     7.4337497     7.7137489     8.0037498     8.3037491     8.6137495     8.9337502     9.2637491     9.6037502     5.4237509     5.5837507     5.7537498     5.9337506     6.1237507     6.3237505     6.5337501     6.7537508     6.9837503     7.2237511     7.4737506     7.7337513     8.0037508     8.2837505     8.5737514     8.8737507     9.1837511     9.5037508     9.8337507    10.1737509     6.0137501     6.1737499     6.3437490     6.5237498     6.7137499     6.9137497     7.1237493     7.3437500     7.5737495     7.8137503     8.0637503     8.3237505     8.5937500     8.8737497     9.1637497     9.4637499     9.7737503    10.0937500    10.4237499    10.7637501     6.6237488     6.7837491     6.9537492     7.1337495     7.3237495     7.5237494     7.7337489     7.9537492     8.1837482     8.4237490     8.6737490     8.9337492     9.2037487     9.4837484     9.7737494    10.0737495    10.3837500    10.7037487    11.0337486    11.3737497     7.2537494     7.4137492     7.5837498     7.7637496     7.9537497     8.1537504     8.3637495     8.5837507     8.8137493     9.0537510     9.3037500     9.5637512     9.8337507    10.1137505    10.4037504    10.7037497    11.0137510    11.3337507    11.6637497    12.0037508
     7.9037504     8.0637503     8.2337484     8.4137487     8.6037483     8.8037500     9.0137501     9.2337494     9.4637489     9.7037497     9.9537497    10.2137499    10.4837494    10.7637491    11.0537500    11.3537493    11.6637497    11.9837494    12.3137493    12.6537504     8.5737514     8.7337513     8.9037495     9.0837507     9.2737513     9.4737501     9.6837521     9.9037514    10.1337509    10.3737516    10.6237507    10.8837509    11.1537514    11.4337502    11.7237511    12.0237513    12.3337517    12.6537514    12.9837503    13.3237514     9.2637510     9.4237518     9.5937490     9.7737503     9.9637508    10.1637506    10.3737516    10.5937510    10.8237514    11.0637512    11.3137503    11.5737514    11.8437500    12.1237507    12.4137506    12.7137508    13.0237522    13.3437500    13.6737518    14.0137510     9.9737501    10.1337509    10.3037491    10.4837494    10.6737499    10.8737488    11.0837498    11.3037491    11.5337505    11.7737494    12.0237494    12.2837496    12.5537491    12.8337488    13.1237497    13.4237490    13.7337494    14.0537491    14.3837490    14.7237492    10.7037506    10.8637505    11.0337486    11.2137499    11.4037504    11.6037502    11.8137512    12.0337505    12.2637501    12.5037508    12.7537508    13.0137510    13.2837505    13.5637493    13.8537512    14.1537504    14.4637508    14.7837505    15.1137505    15.4537516
     3.1000001     3.2999997     3.4999986     3.7000000     3.9000020     4.0999999     4.3000026     4.5000005     4.6999974     4.8999953     5.1000047     5.2999988     5.5000000     5.7000027     5.9000001     6.0999975     6.3000069     6.5000000     6.6999893     6.9000049     3.1000009     3.2999976     3.4999993     3.7000000     3.8999991     4.1000056     4.2999997     4.4999976     4.7000003     4.8999982     5.0999985     5.3000021     5.5000000     5.6999965     5.9000058     6.0999975     6.3000007     6.5000062     6.6999955     6.9000106     3.1000016     3.3000004     3.4999962     3.7000058     3.8999972     4.0999994     4.3000026     4.5000000     4.6999974     4.8999949     5.1000042     5.2999954     5.4999995     5.7000022     5.9000053     6.0999970     6.3000002     6.4999876     6.7000008     6.9000101     3.1000018     3.2999964     3.4999993     3.7000034     3.9000008     4.0999970     4.2999969     4.5000010     4.7000008     4.8999958     5.1000051     5.2999964     5.5000005     5.7000031     5.8999944     6.0999918     6.3000073     6.5000005     6.7000141     6.8999996     3.1000018     3.3000023     3.4999964     3.7000065     3.8999949     4.1000004     4.3000002     4.5000010     4.7000008     4.8999958     5.0999990     5.2999964     5.5000067     5.7000093     5.8999887     6.1000099     6.2999954     6.4999886     6.7000022     6.9000115
     3.0999980     3.3000014     3.5000014     3.7000053     3.8999968     4.0999990     4.2999988     4.4999995     4.6999998     4.9000063     5.0999918     5.3000011     5.5000043     5.7000136     5.8999872     6.0999961     6.2999935     6.4999981     6.7000241     6.8999858     3.1000087     3.2999942     3.4999917     3.7000074     3.9000049     4.0999951     4.3000011     4.5000024     4.6999965     4.9000030     5.1000123     5.2999921     5.5000019     5.6999927     5.9000020     6.0999994     6.2999973     6.4999905     6.7000160     6.8999896     3.1000071     3.2999864     3.5000014     3.6999993     3.8999908     4.1000109     4.3000050     4.4999938     4.7000055     4.9000001     5.0999975     5.2999949     5.4999986     5.7000017     5.8999991     6.0999961     6.3000174     6.4999981     6.7000003     6.8999858     3.0999968     3.2999942     3.5000036     3.7000074     3.8999929     4.0999951     4.3000073     4.4999905     4.6999965     4.9000030     5.0999885     5.3000216     5.5000019     5.6999927     5.9000020     6.0999875     6.2999973     6.5000024     6.7000160     6.9000015     3.0999951     3.2999864     3.5000134     3.6999993     3.8999908     4.1000109     4.2999988     4.4999938     4.7000055     4.9000001     5.0999975     5.3000069     5.4999986     5.7000136     5.8999872     6.0999961     6.3000174     6.4999981     6.6999884     6.8999977
     3.1000249     3.2999744     3.5000193     3.6999934     3.9000027     4.0999990     4.2999988     4.4999938     4.6999936     4.9000001     5.0999975     5.3000069     5.4999986     5.6999898     5.9000111     6.0999842     6.3000293     6.4999862     6.7000003     6.8999977     3.1000011     3.2999864     3.5000074     3.6999934     3.9000027     4.0999990     4.3000107     4.4999938     4.6999936     4.9000120     5.1000094     5.2999949     5.4999986     5.7000017     5.8999991     6.0999842     6.3000174     6.4999981     6.6999884     6.9000216     3.0999928     3.2999785     3.5000236     3.6999979     3.8999836     4.1000037     4.3000159     4.4999866     4.6999993     4.9000177     5.1000032     5.2999887     5.4999933     5.7000198     5.8999696     6.1000271     6.2999887     6.5000300     6.6999717     6.8999815     3.1000011     3.3000102     3.4999955     3.7000053     3.9000027     4.0999990     4.2999868     4.4999938     4.6999936     4.9000120     5.1000094     5.2999949     5.4999986     5.7000017     5.9000230     6.1000080     6.2999935     6.4999623     6.7000122     6.9000216     3.0999892     3.2999983     3.5000074     3.7000053     3.9000027     4.0999990     4.2999988     4.5000057     4.6999936     4.9000001     5.1000214     5.2999830     5.5000224     5.6999898     5.8999753     6.1000080     6.2999935     6.5000100     6.6999884     6.9000216
     3.1000011     3.2999864     3.4999835     3.6999934     3.9000266     4.0999990     4.3000107     4.4999819     4.7000175     4.9000001     5.1000094     5.2999711     5.5000105     5.7000136     5.8999991     6.0999842     6.2999935     6.5000100     6.6999884     6.9000216     3.1000130     3.2999864     3.4999955     3.7000053     3.9000027     4.0999990     4.3000226     4.4999700     4.7000175     4.9000001     5.0999856     5.3000188     5.4999866     5.6999898     5.9000230     6.1000080     6.2999697     6.5000339     6.6999884     6.8999739     3.1000285     3.2999666     3.4999878     3.7000217     3.9000075     4.1000156     4.3000040     4.4999866     4.6999993     4.9000058     5.0999913     5.2999768     5.5000172     5.7000198     5.8999815     6.0999913     6.3000245     6.4999943     6.6999955     6.8999815     3.1000130     3.2999983     3.4999835     3.7000172     3.8999789     4.1000109     4.3000226     4.5000057     4.6999936     4.8999524     5.1000094     5.2999949     5.5000105     5.7000136     5.8999991     6.0999842     6.2999935     6.5000100     6.7000122     6.8999739     3.0999892     3.2999744     3.4999835     3.7000172     3.9000266     4.0999870     4.3000226     4.4999819     4.7000175     4.9000001     5.0999856     5.2999949     5.4999866     5.7000136     5.8999991     6.0999842     6.3000412     6.4999862     6.7000122     6.8999977
     7.1999998     7.2000008     7.2000008     7.1999984     7.1999984     7.2000008     7.2000003     7.2000008     7.1999989     7.2000036     7.2000008     7.1999950     7.1999974     7.2000070     7.2000008     7.2000070     7.1999950     7.2000155     7.2000127     7.2000008     7.6000013     7.5999994     7.6000013     7.6000009     7.6000023     7.6000013     7.5999970     7.5999985     7.6000028     7.5999894     7.6000075     7.6000075     7.6000047     7.6000013     7.6000013     7.5999956     7.6000075     7.5999928     7.5999775     7.5999956     7.9999990     7.9999990     8.0000000     7.9999976     8.0000010     7.9999986     7.9999976     7.9999986     7.9999976     8.0000019     7.9999895     7.9999957     7.9999933     8.0000019     7.9999838     7.9999957     7.9999957     7.9999814     8.0000019     8.0000019     8.4000006     8.3999996     8.3999987     8.4000063     8.4000006     8.3999949     8.4000025     8.3999977     8.4000025     8.4000034     8.3999977     8.4000034     8.4000015     8.3999920     8.3999977     8.4000034     8.4000101     8.4000082     8.4000101     8.3999977     8.7999973     8.8000002     8.7999992     8.8000011     8.7999983     8.7999983     8.8000031     8.8000040     8.7999973     8.7999983     8.7999926     8.8000040     8.8000031     8.7999983     8.8000107     8.8000040     8.7999926     8.7999916     8.7999926     8.7999926
     9.2000017     9.1999950     9.1999941     9.1999931     9.1999989     9.2000084     9.1999960     9.1999969     9.1999960     9.2000084     9.2000084     9.1999846     9.1999950     9.2000084     9.2000084     9.1999969     9.1999969     9.2000074     9.1999969     9.1999969     9.5999928     9.6000042     9.5999985     9.5999994     9.6000051     9.5999966     9.5999899     9.6000023     9.6000080     9.6000023     9.6000023     9.6000023     9.6000080     9.5999966     9.5999966     9.5999851     9.5999966     9.6000204     9.6000090     9.6000090    10.0000114    10.0000057    10.0000048    10.0000067     9.9999952     9.9999981    10.0000095     9.9999981     9.9999971    10.0000038     9.9999857    10.0000095    10.0000095     9.9999857     9.9999981    10.0000095     9.9999981     9.9999857     9.9999981     9.9999981    10.4000006    10.3999949    10.4000006    10.3999958    10.4000015    10.3999987    10.4000044    10.4000044    10.3999920    10.3999987    10.4000225    10.3999987    10.3999872    10.4000101    10.3999987    10.3999987    10.3999987    10.4000111    10.3999987    10.4000101    10.7999897    10.8000011    10.7999945    10.8000078    10.7999964    10.8000107    10.8000050    10.7999992    10.8000050    10.7999992    10.7999868    10.7999868    10.7999992    10.7999868    10.7999868    10.7999992    10.7999992    10.7999992    10.7999992    10.7999868
    11.2000017    11.2000017    11.2000065    11.1999969    11.2000093    11.1999941    11.1999884    11.2000055    11.1999998    11.1999941    11.2000055    11.2000179    11.1999941    11.2000055    11.2000179    11.2000055    11.2000055    11.2000065    11.2000055    11.2000055    11.6000023    11.6000023    11.5999899    11.5999918    11.5999918    11.6000004    11.6000071    11.6000004    11.6000071    11.6000004    11.6000128    11.6000128    11.6000137    11.6000004    11.6000004    11.6000128    11.6000128    11.5999899    11.6000128    11.5999889    12.0000000    12.0000000    12.0000105    12.0000010    11.9999895    11.9999847    11.9999924    11.9999847    11.9999924    11.9999962    11.9999847    11.9999723    11.9999876    11.9999847    11.9999847    11.9999962    11.9999847    11.9999876    11.9999723    12.0000200    12.3999920    12.3999805    12.4000025    12.4000053    12.4000168    12.4000139    12.4000092    12.4000139    12.3999968    12.3999901    12.4000015    12.4000015    12.4000158    12.4000139    12.4000139    12.3999901    12.4000254    12.3999920    12.3999777    12.3999777    12.7999992    12.7999992    12.7999973    12.8000002    12.7999878    12.8000088    12.8000040    12.7999849    12.7999802    12.8000326    12.7999964    12.8000088    12.7999868    12.8000088    12.8000202    12.7999725    12.7999725    12.8000107    12.8000202    12.8000202
    13.1999931    13.1999931    13.1999807    13.2000065    13.2000189    13.1999912    13.2000103    13.2000151    13.2000227    13.1999788    13.2000265    13.2000151    13.1999817    13.2000151    13.1999674    13.2000151    13.2000151    13.2000294    13.2000151    13.2000151    13.6000242    13.6000242    13.6000109    13.5999899    13.6000013    13.6000099    13.5999937    13.5999975    13.5999813    13.6000099    13.5999861    13.5999861    13.6000252    13.5999861    13.6000099    13.6000099    13.6000099    13.5999775    13.6000099    13.5999861    13.9999876    14.0000362    14.0000229    13.9999895    13.9999895    13.9999962    13.9999809    13.9999962    14.0000286    13.9999962    13.9999962    14.0000200    13.9999895    14.0000200    13.9999962    13.9999962    14.0000200    13.9999895    13.9999962    13.9999962    14.4000015    14.3999662    14.3999882    14.3999796    14.3999796    14.3999987    14.4000311    14.3999987    14.3999834    14.3999987    14.3999987    14.3999748    14.3999910    14.3999510    14.4000225    14.3999987    14.3999748    14.4000149    14.3999987    14.4000225    14.8000202    14.7999964    14.7999954    14.8000212    14.8000212    14.7999935    14.7999783    14.8000174    14.8000021    14.7999935    14.7999935    14.7999935    14.8000097    14.8000174    14.7999935    14.7999935    14.7999935    14.7999859    14.7999935    14.7999935