 VARIABLES = "X","Y","P","GradP_X","GradP_Y","GradP_Error_X","GradP_Error_Y","V_x","V_y", "DivV","DivV_Exact","DivV_Error","LaplP","LaplP_Exact","LaplP_Error","RotV","RotV_Exact","RotV_Error","VFlos_X","VFlos_Y","T","GradT_X","GradT_Y","ResT","TFlos","T_Error"
 ZONE I=          21 ,J=          21 , DATAPACKING=BLOCK, VARLOCATION=([3-30]=CELLCENTERED)
     0.0000000     0.0500000     0.1000000     0.1500000     0.2000000     0.2500000     0.2600000     0.3100000     0.3600000     0.4100000     0.4600000     0.5100000     0.5600000     0.6100000     0.6600000     0.7100000     0.7600000     0.8100000     0.8600000     0.9100000     1.0000000     0.0000000     0.0500000     0.1000000     0.1500000     0.2000000     0.2500000     0.2642105     0.3142105     0.3642105     0.4142105     0.4642105     0.5142105     0.5642105     0.6142105     0.6642105     0.7142105     0.7642105     0.8142105     0.8642105     0.9142105     1.0000000     0.0000000     0.0500000     0.1000000     0.1500000     0.2000000     0.2500000     0.2684211     0.3184211     0.3684211     0.4184211     0.4684211     0.5184211     0.5684211     0.6184211     0.6684211     0.7184211     0.7684211     0.8184211     0.8684211     0.9184211     1.0000000     0.0000000     0.0500000     0.1000000     0.1500000     0.2000000     0.2500000     0.2726316     0.3226316     0.3726316     0.4226316     0.4726316     0.5226316     0.5726316     0.6226316     0.6726316     0.7226316     0.7726316     0.8226316     0.8726316     0.9226316     1.0000000     0.0000000     0.0500000     0.1000000     0.1500000     0.2000000     0.2500000     0.2768421     0.3268421     0.3768421     0.4268421     0.4768421     0.5268421     0.5768421     0.6268421     0.6768421     0.7268421
     0.7768421     0.8268421     0.8768421     0.9268421     1.0000000     0.0000000     0.0500000     0.1000000     0.1500000     0.2000000     0.2500000     0.2810526     0.3310526     0.3810526     0.4310526     0.4810526     0.5310526     0.5810526     0.6310526     0.6810526     0.7310526     0.7810526     0.8310526     0.8810526     0.9310526     1.0000000     0.0000000     0.0500000     0.1000000     0.1500000     0.2000000     0.2500000     0.2852632     0.3352632     0.3852632     0.4352632     0.4852632     0.5352632     0.5852632     0.6352632     0.6852632     0.7352632     0.7852632     0.8352632     0.8852632     0.9352632     1.0000000     0.0000000     0.0500000     0.1000000     0.1500000     0.2000000     0.2500000     0.2894737     0.3394737     0.3894737     0.4394737     0.4894737     0.5394737     0.5894737     0.6394737     0.6894737     0.7394737     0.7894737     0.8394737     0.8894737     0.9394737     1.0000000     0.0000000     0.0500000     0.1000000     0.1500000     0.2000000     0.2500000     0.2936842     0.3436842     0.3936842     0.4436842     0.4936842     0.5436842     0.5936842     0.6436842     0.6936842     0.7436842     0.7936842     0.8436842     0.8936842     0.9436842     1.0000000     0.0000000     0.0500000     0.1000000     0.1500000     0.2000000     0.2500000     0.2978947     0.3478947     0.3978947     0.4478947     0.4978947
     0.5478947     0.5978947     0.6478947     0.6978947     0.7478947     0.7978947     0.8478947     0.8978947     0.9478947     1.0000000     0.0000000     0.0400000     0.0900000     0.1400000     0.1900000     0.2400000     0.3021053     0.3521053     0.4021053     0.4521053     0.5021053     0.5521053     0.6021053     0.6521053     0.7021053     0.7521053     0.8021053     0.8521053     0.9021053     0.9521053     1.0000000     0.0000000     0.0600000     0.1100000     0.1600000     0.2100000     0.2600000     0.3063158     0.3563158     0.4063158     0.4563158     0.5063158     0.5563158     0.6063158     0.6563158     0.7063158     0.7563158     0.8063158     0.8563158     0.9063158     0.9563158     1.0000000     0.0000000     0.0400000     0.0900000     0.1400000     0.1900000     0.2400000     0.3105263     0.3605263     0.4105263     0.4605263     0.5105263     0.5605263     0.6105263     0.6605263     0.7105263     0.7605263     0.8105263     0.8605263     0.9105263     0.9605263     1.0000000     0.0000000     0.0600000     0.1100000     0.1600000     0.2100000     0.2600000     0.3147368     0.3647368     0.4147368     0.4647368     0.5147368     0.5647368     0.6147368     0.6647368     0.7147368     0.7647368     0.8147368     0.8647368     0.9147368     0.9647368     1.0000000     0.0000000     0.0400000     0.0900000     0.1400000     0.1900000     0.2400000
     0.3189474     0.3689474     0.4189474     0.4689474     0.5189474     0.5689474     0.6189474     0.6689474     0.7189474     0.7689474     0.8189474     0.8689474     0.9189474     0.9689474     1.0000000     0.0000000     0.0600000     0.1100000     0.1600000     0.2100000     0.2600000     0.3231579     0.3731579     0.4231579     0.4731579     0.5231579     0.5731579     0.6231579     0.6731579     0.7231579     0.7731579     0.8231579     0.8731579     0.9231579     0.9731579     1.0000000     0.0000000     0.0400000     0.0900000     0.1400000     0.1900000     0.2400000     0.3273684     0.3773684     0.4273684     0.4773684     0.5273684     0.5773684     0.6273684     0.6773684     0.7273684     0.7773684     0.8273684     0.8773684     0.9273684     0.9773684     1.0000000     0.0000000     0.0600000     0.1100000     0.1600000     0.2100000     0.2600000     0.3315789     0.3815789     0.4315789     0.4815789     0.5315789     0.5815789     0.6315789     0.6815789     0.7315789     0.7815789     0.8315789     0.8815789     0.9315789     0.9815789     1.0000000     0.0000000     0.0400000     0.0900000     0.1400000     0.1900000     0.2400000     0.3357895     0.3857895     0.4357895     0.4857895     0.5357895     0.5857895     0.6357895     0.6857895     0.7357895     0.7857895     0.8357895     0.8857895     0.9357895     0.9857895     1.0000000     0.0000000
     0.0600000     0.1100000     0.1600000     0.2100000     0.2600000     0.3400000     0.3900000     0.4400000     0.4900000     0.5400000     0.5900000     0.6400000     0.6900000     0.7400000     0.7900000     0.8400000     0.8900000     0.9400000     0.9900000     1.0000000     0.0000000     0.0500000     0.1000000     0.1500000     0.2000000     0.2500000     0.3442105     0.3942105     0.4442105     0.4942105     0.5442105     0.5942105     0.6442105     0.6942105     0.7442105     0.7942105     0.8442105     0.8942105     0.9442105     0.9942105     1.0000000
     0.0000000     0.0000000     0.0000000     0.0000000     0.0000000     0.0000000     0.0000000     0.0000000     0.0000000     0.0000000     0.0000000     0.0000000     0.0000000     0.0000000     0.0000000     0.0000000     0.0000000     0.0000000     0.0000000     0.0000000     0.0000000     0.0500000     0.0500000     0.0500000     0.0500000     0.0500000     0.0500000     0.0500000     0.0500000     0.0500000     0.0500000     0.0500000     0.0500000     0.0500000     0.0600000     0.0400000     0.0600000     0.0400000     0.0600000     0.0400000     0.0600000     0.0500000     0.1000000     0.1000000     0.1000000     0.1000000     0.1000000     0.1000000     0.1000000     0.1000000     0.1000000     0.1000000     0.1000000     0.1000000     0.1000000     0.1100000     0.0900000     0.1100000     0.0900000     0.1100000     0.0900000     0.1100000     0.1000000     0.1500000     0.1500000     0.1500000     0.1500000     0.1500000     0.1500000     0.1500000     0.1500000     0.1500000     0.1500000     0.1500000     0.1500000     0.1500000     0.1600000     0.1400000     0.1600000     0.1400000     0.1600000     0.1400000     0.1600000     0.1500000     0.2000000     0.2000000     0.2000000     0.2000000     0.2000000     0.2000000     0.2000000     0.2000000     0.2000000     0.2000000     0.2000000     0.2000000     0.2000000     0.2100000     0.1900000     0.2100000
     0.1900000     0.2100000     0.1900000     0.2100000     0.2000000     0.2500000     0.2500000     0.2500000     0.2500000     0.2500000     0.2500000     0.2500000     0.2500000     0.2500000     0.2500000     0.2500000     0.2500000     0.2500000     0.2600000     0.2400000     0.2600000     0.2400000     0.2600000     0.2400000     0.2600000     0.2500000     0.3000000     0.3000000     0.3000000     0.3000000     0.3000000     0.3000000     0.3000000     0.3000000     0.3000000     0.3000000     0.3000000     0.3000000     0.3000000     0.3100000     0.2900000     0.3100000     0.2900000     0.3100000     0.2900000     0.3100000     0.3000000     0.3500000     0.3500000     0.3500000     0.3500000     0.3500000     0.3500000     0.3500000     0.3500000     0.3500000     0.3500000     0.3500000     0.3500000     0.3500000     0.3600000     0.3400000     0.3600000     0.3400000     0.3600000     0.3400000     0.3600000     0.3500000     0.4000000     0.4000000     0.4000000     0.4000000     0.4000000     0.4000000     0.4000000     0.4000000     0.4000000     0.4000000     0.4000000     0.4000000     0.4000000     0.4100000     0.3900000     0.4100000     0.3900000     0.4100000     0.3900000     0.4100000     0.4000000     0.4500000     0.4500000     0.4500000     0.4500000     0.4500000     0.4500000     0.4500000     0.4500000     0.4500000     0.4500000     0.4500000
     0.4500000     0.4500000     0.4600000     0.4400000     0.4600000     0.4400000     0.4600000     0.4400000     0.4600000     0.4500000     0.5000000     0.5000000     0.5000000     0.5000000     0.5000000     0.5000000     0.5000000     0.5000000     0.5000000     0.5000000     0.5000000     0.5000000     0.5000000     0.5100000     0.4900000     0.5100000     0.4900000     0.5100000     0.4900000     0.5100000     0.5000000     0.5500000     0.5500000     0.5500000     0.5500000     0.5500000     0.5500000     0.5500000     0.5500000     0.5500000     0.5500000     0.5500000     0.5500000     0.5500000     0.5600000     0.5400000     0.5600000     0.5400000     0.5600000     0.5400000     0.5600000     0.5500000     0.6000000     0.6000000     0.6000000     0.6000000     0.6000000     0.6000000     0.6000000     0.6000000     0.6000000     0.6000000     0.6000000     0.6000000     0.6000000     0.6100000     0.5900000     0.6100000     0.5900000     0.6100000     0.5900000     0.6100000     0.6000000     0.6500000     0.6500000     0.6500000     0.6500000     0.6500000     0.6500000     0.6500000     0.6500000     0.6500000     0.6500000     0.6500000     0.6500000     0.6500000     0.6600000     0.6400000     0.6600000     0.6400000     0.6600000     0.6400000     0.6600000     0.6500000     0.7000000     0.7000000     0.7000000     0.7000000     0.7000000     0.7000000
     0.7000000     0.7000000     0.7000000     0.7000000     0.7000000     0.7000000     0.7000000     0.7100000     0.6900000     0.7100000     0.6900000     0.7100000     0.6900000     0.7100000     0.7000000     0.7500000     0.7500000     0.7500000     0.7500000     0.7500000     0.7500000     0.7500000     0.7500000     0.7500000     0.7500000     0.7500000     0.7500000     0.7500000     0.7600000     0.7400000     0.7600000     0.7400000     0.7600000     0.7400000     0.7600000     0.7500000     0.8000000     0.8000000     0.8000000     0.8000000     0.8000000     0.8000000     0.8000000     0.8000000     0.8000000     0.8000000     0.8000000     0.8000000     0.8000000     0.8100000     0.7900000     0.8100000     0.7900000     0.8100000     0.7900000     0.8100000     0.8000000     0.8500000     0.8500000     0.8500000     0.8500000     0.8500000     0.8500000     0.8500000     0.8500000     0.8500000     0.8500000     0.8500000     0.8500000     0.8500000     0.8600000     0.8400000     0.8600000     0.8400000     0.8600000     0.8400000     0.8600000     0.8500000     0.9000000     0.9000000     0.9000000     0.9000000     0.9000000     0.9000000     0.9000000     0.9000000     0.9000000     0.9000000     0.9000000     0.9000000     0.9000000     0.9100000     0.8900000     0.9100000     0.8900000     0.9100000     0.8900000     0.9100000     0.9000000     0.9500000
     0.9500000     0.9500000     0.9500000     0.9500000     0.9500000     0.9500000     0.9500000     0.9500000     0.9500000     0.9500000     0.9500000     0.9500000     0.9600000     0.9400000     0.9600000     0.9400000     0.9600000     0.9400000     0.9600000     0.9500000     1.0000000     1.0000000     1.0000000     1.0000000     1.0000000     1.0000000     1.0000000     1.0000000     1.0000000     1.0000000     1.0000000     1.0000000     1.0000000     1.0000000     1.0000000     1.0000000     1.0000000     1.0000000     1.0000000     1.0000000     1.0000000
     0.2537500     0.4137500     0.5837500     0.7637500     0.9537498     1.0830576     1.2036746     1.4160955     1.6385168     1.8709378     2.1133585     2.3657796     2.6543729     2.8942304     3.2042174     3.4681125     3.8000510     4.0819950     4.4358845     4.8791733     0.6237500     0.7837501     0.9537500     1.1337500     1.3237498     1.4614694     1.5911772     1.8044405     2.0277038     2.2609665     2.5042300     2.7574935     3.0588562     3.2940192     3.5772824     3.8705449     4.1738091     4.4870710     4.8103342     5.2929611     1.0137502     1.1737502     1.3437500     1.5237501     1.7137501     1.8599070     1.9987507     2.2128558     2.4369612     2.6710665     2.9151716     3.1692772     3.4734821     3.7074876     3.9915929     4.2856975     4.5898032     4.9039087     5.2280140     5.6991034     1.4237502     1.5837501     1.7537498     1.9337502     2.1237502     2.2783694     2.4263949     2.6413424     2.8662901     3.1012373     3.3461847     3.6011319     3.9081788     4.1410265     4.4259739     4.7209215     5.0258684     5.3408155     5.6657629     6.1252465     1.8537501     2.0137501     2.1837499     2.3637502     2.5537500     2.7168553     2.8741102     3.0898995     3.3156891     3.5514786     3.7972677     4.0530572     4.3629475     4.5946360     4.8804255     5.1762152     5.4820042     5.7977943     6.1235838     6.5713902
     2.3037500     2.4637499     2.6337497     2.8137503     3.0037501     3.1753638     3.3418961     3.5585277     3.7851591     4.0217910     4.2684221     4.5250540     4.8377857     5.0683179     5.3549490     5.6515808     5.9582114     6.2748442     6.6014757     7.0375352     2.7737501     2.9337502     3.1037495     3.2837496     3.4737499     3.6538942     3.8297534     4.0472269     4.2747006     4.5121746     4.7596483     5.0171218     5.3326960     5.5620694     5.8495426     6.1470165     6.4544911     6.7719650     7.0994377     7.5236754     3.2637503     3.4237504     3.5937498     3.7737498     3.9637496     4.1524458     4.3376818     4.5559969     4.7843132     5.0226288     5.2709451     5.5292602     5.8476753     6.0758915     6.3642082     6.6625233     6.9708395     7.2891545     7.6174707     8.0298119     3.7737503     3.9337502     4.1037493     4.2837501     4.4737501     4.6710176     4.8656802     5.0848379     5.3139963     5.5531535     5.8023119     6.0614696     6.3827271     6.6097851     6.8989429     7.1981010     7.5072584     7.8264170     8.1555748     8.5559416     4.2826481     4.4473000     4.6163001     4.7953005     4.9842997     5.2108622     5.4137502     5.6337500     5.8637505     6.1037507     6.3537502     6.6137500     6.9378490     7.1637497     7.4537492     7.7537498     8.0637493     8.3837500     8.7137489     9.1020641
     4.8842320     5.0137506     5.1837502     5.3637505     5.5537500     5.7378216     5.9818907     6.2027321     6.4335742     6.6744175     6.9252596     7.1861010     7.5130434     7.7377858     8.0286283     8.3294687     8.6403122     8.9611549     9.2919970     9.6681786     5.3983092     5.5837507     5.7537508     5.9337506     6.1237507     6.3690867     6.5701032     6.7917876     7.0234718     7.2651558     7.5168400     7.7785244     8.1083078     8.3318920     8.6235771     8.9252605     9.2369452     9.5586300     9.8903131    10.2542839     6.0461936     6.1737499     6.3437500     6.5237498     6.7137499     6.9152894     7.1783857     7.4009113     7.6334381     7.8759632     8.1284904     8.3910170     8.7236414     8.9460678     9.2385950     9.5411215     9.8536472    10.1761742    10.5086994    10.8603802     6.5963464     6.7837491     6.9537492     7.1337495     7.3237495     7.5862212     7.8067369     8.0301065     8.2634745     8.5068436     8.7602119     9.0235796     9.3590488     9.5803165     9.8736849    10.1770535    10.4904213    10.8137903    11.1471586    11.4864712     7.2881575     7.4137502     7.5837498     7.7637496     7.9537497     8.1728086     8.4551640     8.6793737     8.9135847     9.1577940     9.4120064     9.6762161    10.0145273    10.2346363    10.5288467    10.8330574    11.1472702    11.4714775    11.8056889    12.1325731
     7.8743858     8.0637503     8.2337494     8.4137497     8.6037493     8.8834553     9.1236582     9.3487101     9.5837631     9.8288155    10.0838680    10.3489218    10.6900740    10.9090271    11.2040796    11.5091305    11.8241854    12.1492357    12.4842911    12.7987089     8.6101198     8.7337513     8.9037514     9.0837507     9.2737513     9.5103807     9.8122253    10.0381203    10.2740154    10.5199099    10.7758036    11.0416985    11.3856926    11.6034889    11.8993826    12.2052755    12.5211725    12.8470659    13.1829624    13.4849358     9.2324228     9.4237518     9.5937500     9.7737494     9.9637499    10.2607870    10.5208616    10.7475977    10.9843349    11.2310715    11.4878082    11.7545452    12.1013832    12.3180199    12.6147547    12.9214916    13.2382288    13.5649662    13.9017029    14.1913738    10.0120802    10.1337509    10.3037491    10.4837484    10.6737490    10.9280090    11.2495689    11.4771490    11.7147284    11.9623051    12.2198849    12.4874630    12.8371429    13.0526228    13.3501997    13.6577806    13.9753590    14.3029385    14.6405172    14.9182997    10.6947498    10.8802996    11.0513020    11.2323017    11.4233007    11.7196741    11.9983501    12.2267704    12.4651909    12.7136116    12.9720335    13.2404537    13.5448170    13.8071947    14.0764904    14.4149971    14.7023401    15.0627975    15.3681917    15.6102581
     3.1249995     3.3000004     3.4999986     3.7000000     3.8802385     4.0238361     4.1682725     4.3484211     4.5484214     4.7484207     4.9484134     5.1482935     5.3351145     5.5664573     5.7283645     5.9679217     6.1283579     6.3680634     6.5506415     6.8029513     3.1250012     3.2999990     3.4999979     3.7000000     3.8830535     4.0323582     4.1823030     4.3652625     4.5652599     4.7652650     4.9652653     5.1653643     5.3618126     5.5618176     5.7652397     5.9651928     6.1652060     6.3652987     6.5856061     6.8098927     3.1249998     3.3000004     3.4999990     3.7000027     3.8852153     4.0408416     4.1969748     4.3821082     4.5821023     4.7820969     4.9821134     5.1820917     5.3780804     5.5781808     5.7821465     5.9821119     6.1821046     6.3822527     6.6008883     6.8189535     3.1250031     3.2999964     3.4999993     3.6999974     3.8873618     4.0492849     4.2116756     4.3989530     4.5989532     4.7989421     4.9989524     5.1989250     5.3949337     5.5950041     5.7989922     5.9989572     6.1989384     6.3990850     6.6155806     6.8275352     3.1249971     3.3000083     3.4999964     3.7000005     3.8894806     4.0577512     4.2263918     4.4157853     4.6157856     4.8157983     5.0157909     5.2157750     5.4117813     5.6118269     5.8158221     6.0158038     6.2157893     6.4159188     6.6302676     6.8361359
     3.1249993     3.3000014     3.5000014     3.7000053     3.8915925     4.0661883     4.2411203     4.4326286     4.6326284     4.8326235     5.0326352     5.2326298     5.4286098     5.6286988     5.8326445     6.0326653     6.2326164     6.4327302     6.6449752     6.8447285     3.1250010     3.3000002     3.4999976     3.7000015     3.8937225     4.0746260     4.2558341     4.4494753     4.6494813     4.8494701     5.0494690     5.2494655     5.4454684     5.6455173     5.8495002     6.0494990     6.2494631     6.4495573     6.6596603     6.8533664     3.1250052     3.2999864     3.5000074     3.6999993     3.8958304     4.0830407     4.2705841     4.4663172     4.6663170     4.8663235     5.0663104     5.2663059     5.4622674     5.6623840     5.8663540     6.0663171     6.2663159     6.4663634     6.6743789     6.8620543     3.1249950     3.3000002     3.5000036     3.7000074     3.8979187     4.0914817     4.2853074     4.4831758     4.6831641     4.8831468     5.0831695     5.2831182     5.4791532     5.6792092     5.8832016     6.0831485     6.2831845     6.4832034     6.6890459     6.8707604     3.1147461     3.2827246     3.4800103     3.6799960     3.8824193     4.0903411     4.2972083     4.4999938     4.7000160     4.8999896     5.1000094     5.2999592     5.4960093     5.6960549     5.9000564     6.0999851     6.2999988     6.5000477     6.7037220     6.8795419
     3.1242068     3.3007967     3.5000081     3.6999815     3.9013379     4.1101260     4.3136601     4.5168381     4.7168365     4.9168558     5.1168447     5.3168149     5.5128412     5.7128987     5.9168720     6.1168284     6.3168287     6.5168724     6.7184153     6.8883748     3.1242008     3.3008087     3.5000081     3.6999815     3.9036148     4.1183882     4.3282752     4.5336943     4.7336822     4.9336758     5.1336765     5.3336835     5.5296493     5.7297478     5.9337306     6.1336632     6.3337197     6.5336614     6.7330971     6.8972931     3.1242280     3.3007772     3.5000000     3.6999977     3.9055624     4.1267252     4.3431220     4.5505438     4.7505202     4.9505281     5.1505241     5.3504982     5.5465012     5.7465963     5.9505777     6.1505232     6.3505211     6.5504947     6.7478085     6.9062791     3.1241889     3.3007967     3.5000319     3.6999695     3.9078228     4.1350517     4.3577437     4.5673709     4.7673812     4.9673548     5.1673541     5.3673720     5.5633388     5.7634115     5.9674211     6.1673961     6.3673205     6.5673742     6.7624583     6.9154634     3.1242008     3.3008087     3.4999962     3.7000053     3.9097540     4.1433940     4.3726211     4.5842152     4.7842007     4.9842110     5.1842213     5.3842044     5.5801964     5.7802396     5.9842196     6.1842585     6.3841462     6.5842047     6.7770715     6.9249763
     3.1242127     3.3007610     3.5000439     3.6999934     3.9119952     4.1517401     4.3872242     4.6010594     4.8010449     5.0010552     5.2010779     5.4010363     5.5970349     5.7970686     6.0011425     6.2010098     6.4010806     6.6009498     6.7916942     6.9348516     3.1241770     3.3008087     3.5000200     3.7000053     3.9139383     4.1601019     4.4021134     4.6179156     4.8178663     5.0179214     5.2178621     5.4178929     5.6138525     5.8139691     6.0179272     6.2179022     6.4179163     6.6177850     6.8062277     6.9455428     3.1242042     3.3008010     3.5000000     3.7000096     3.9161482     4.1684585     4.4167328     4.6347661     4.8347287     5.0347376     5.2347221     5.4347558     5.6306953     5.8308167     6.0347199     6.2347560     6.4347181     6.6346350     6.8205967     6.9577389     3.1241412     3.3008802     3.4999604     3.7000411     3.9181464     4.1768179     4.4315805     4.6515694     4.8516011     5.0515642     5.2515750     5.4517241     5.6480303     5.8479114     6.0517449     6.2515597     6.4517145     6.6515384     6.8346190     6.9699235     3.1343148     3.3182373     3.5200109     3.7199728     3.9388888     4.1944618     4.4491296     4.6684246     4.8684096     5.0684204     5.2684307     5.4682231     5.6752801     5.8478265     6.0884657     6.2489452     6.4884396     6.6487932     6.8670015     6.8937426
     7.2500010     7.2500010     7.2500000     7.2499986     7.2499990     7.2736616     7.2485085     7.2501750     7.2501812     7.2501822     7.2501812     7.2501955     7.2702498     7.2479901     7.2492852     7.2479587     7.2492852     7.2479372     7.2471943     7.2707286     7.6000009     7.5999994     7.6000013     7.6000009     7.6000009     7.6230712     7.5985641     7.6000037     7.6000009     7.5999928     7.5999985     7.5999947     7.6357226     7.6017699     7.6017308     7.6014009     7.6017437     7.6014028     7.6005402     7.6358976     7.9999990     7.9999990     8.0000000     7.9999976     8.0000038     8.0175743     7.9987440     7.9999924     7.9999971     8.0000105     8.0000038     7.9999957     8.0403347     8.0003471     7.9999952     8.0000229     8.0000000     7.9999905     7.9984255     8.0400143     8.4000006     8.3999996     8.3999987     8.4000063     8.3999968     8.4138994     8.3989248     8.3999949     8.3999968     8.3999920     8.3999872     8.3999977     8.4403448     8.4003382     8.3999748     8.3999939     8.3999901     8.3999777     8.3985786     8.4395370     8.7999973     8.8000002     8.7999992     8.8000011     8.7999983     8.8112421     8.7991104     8.7999983     8.8000031     8.8000040     8.8000011     8.7999983     8.8403349     8.8003197     8.8000097     8.8000078     8.7999830     8.8000154     8.7987785     8.8390455
     9.2000017     9.1999950     9.1999941     9.1999931     9.1999989     9.2092066     9.1992836     9.2000141     9.1999960     9.2000027     9.2000017     9.1999903     9.2403383     9.2003355     9.2000084     9.1999979     9.2000141     9.1999836     9.1989775     9.2384720     9.5999928     9.6000042     9.5999985     9.5999937     9.5999994     9.6076088     9.5994539     9.5999784     9.6000137     9.5999966     9.6000109     9.6000214     9.6403275     9.6003284     9.5999756     9.5999975     9.6000166     9.6000090     9.5991621     9.6378689    10.0000114    10.0000114    10.0000105    10.0000124    10.0000010    10.0062809     9.9996576    10.0000162     9.9999971    10.0000038     9.9999886     9.9999971    10.0403366    10.0003214    10.0000124     9.9999914     9.9999914     9.9999838     9.9993057    10.0372000    10.3979378    10.4000597    10.3999825    10.3999958    10.3999958    10.4074392    10.3998051    10.3999987    10.4000044    10.3999863    10.4000130    10.4000111    10.4403572    10.4003363    10.3999786    10.4000082    10.3999748    10.3999710    10.3995018    10.4364338    10.7940750    10.7981529    10.7979450    10.7979460    10.7981548    10.8008480    10.8002529    10.7999868    10.7999783    10.7999907    10.7999868    10.7999992    10.8403273    10.8003569    10.8000193    10.8000221    10.8000069    10.8000107    10.7996979    10.8356628
    11.2065659    11.1981707    11.1980543    11.1980543    11.1983042    11.2024860    11.2002745    11.2000055    11.2000208    11.2000170    11.2000122    11.2000170    11.2403460    11.2003269    11.2000074    11.1999893    11.2000008    11.2000132    11.1998463    11.2346478    11.5944185    11.5999899    11.6000280    11.5999804    11.6000395    11.5969181    11.6004477    11.6000004    11.5999947    11.6000090    11.5999937    11.6000004    11.6403542    11.6003304    11.5999823    11.5999994    11.6000137    11.5999994    11.6000566    11.6335630    12.0055552    12.0000000    11.9999762    12.0000124    12.0000124    12.0098228    12.0006123    12.0000334    11.9999924    11.9999762    12.0000086    11.9999962    12.0403214    12.0003319    11.9999962    11.9999914    11.9999857    11.9999733    12.0002518    12.0322256    12.3944321    12.4000387    12.4000168    12.4000053    12.4000406    12.3909674    12.4008198    12.3999662    12.4000053    12.4000053    12.3999624    12.4000015    12.4403648    12.4003382    12.3999643    12.4000311    12.4000139    12.4000034    12.4004087    12.4306440    12.8055668    12.7999496    12.8000355    12.7999878    12.8000116    12.8129635    12.8009930    12.8000326    12.8000088    12.8000002    12.8000145    12.7999725    12.8402824    12.8003225    12.8000393    12.7999811    12.8000221    12.8000278    12.8006067    12.8286228
    13.1944399    13.2000046    13.2000065    13.2000189    13.2000666    13.1859922    13.2011671    13.2000027    13.2000265    13.1999950    13.1999989    13.2000618    13.2403879    13.2003555    13.1999950    13.1999969    13.1999874    13.1999741    13.2008095    13.2259150    13.6055689    13.6000109    13.6000013    13.5999660    13.6000137    13.6156588    13.6013165    13.5999861    13.5999775    13.6000319    13.6000156    13.6000099    13.6402988    13.6003370    13.5999956    13.5999966    13.6000032    13.6000423    13.6010065    13.6223192    13.9944210    14.0000238    13.9999876    13.9999762    14.0000238    13.9816561    14.0014791    13.9999523    14.0000010    13.9999762    13.9999971    13.9999733    14.0403728    14.0002890    13.9999752    13.9999380    13.9999752    13.9999657    14.0011225    14.0168667    14.4084673    14.4020033    14.4023161    14.4023161    14.4011717    14.4171114    14.4017200    14.4000511    14.3999748    14.4000034    14.4000072    14.3999500    14.4347382    14.3989897    14.3982716    14.3986664    14.3982887    14.3986149    14.3992367    14.4014072    14.7531433    14.7514305    14.7517166    14.7517176    14.7527666    14.7376451    14.7514362    14.7498064    14.7498541    14.7498579    14.7498131    14.7498541    14.7700443    14.7521057    14.7507582    14.7520113    14.7507133    14.7520475    14.7534609    14.7370005