 VARIABLES = "X","Y","P","GradP_X","GradP_Y","GradP_Error_X","GradP_Error_Y","V_x","V_y", "DivV","DivV_Exact","DivV_Error","LaplP","LaplP_Exact","LaplP_Error","RotV","RotV_Exact","RotV_Error","VFlos_X","VFlos_Y","T","GradT_X","GradT_Y","ResT","TFlos","T_Error"
 ZONE I=          21 ,J=          21 , DATAPACKING=BLOCK, VARLOCATION=([3-30]=CELLCENTERED)
     0.0000000     0.0500000     0.1000000     0.1500000     0.2000000     0.2500000     0.2600000     0.3100000     0.3600000     0.4100000     0.4600000     0.5100000     0.5600000     0.6100000     0.6600000     0.7100000     0.7600000     0.8100000     0.8600000     0.9100000     1.0000000     0.0000000     0.0500000     0.1000000     0.1500000     0.2000000     0.2500000     0.2642105     0.3142105     0.3642105     0.4142105     0.4642105     0.5142105     0.5642105     0.6142105     0.6642105     0.7142105     0.7642105     0.8142105     0.8642105     0.9142105     1.0000000     0.0000000     0.0500000     0.1000000     0.1500000     0.2000000     0.2500000     0.2684211     0.3184211     0.3684211     0.4184211     0.4684211     0.5184211     0.5684211     0.6184211     0.6684211     0.7184211     0.7684211     0.8184211     0.8684211     0.9184211     1.0000000     0.0000000     0.0500000     0.1000000     0.1500000     0.2000000     0.2500000     0.2726316     0.3226316     0.3726316     0.4226316     0.4726316     0.5226316     0.5726316     0.6226316     0.6726316     0.7226316     0.7726316     0.8226316     0.8726316     0.9226316     1.0000000     0.0000000     0.0500000     0.1000000     0.1500000     0.2000000     0.2500000     0.2768421     0.3268421     0.3768421     0.4268421     0.4768421     0.5268421     0.5768421     0.6268421     0.6768421     0.7268421
     0.7768421     0.8268421     0.8768421     0.9268421     1.0000000     0.0000000     0.0500000     0.1000000     0.1500000     0.2000000     0.2500000     0.2810526     0.3310526     0.3810526     0.4310526     0.4810526     0.5310526     0.5810526     0.6310526     0.6810526     0.7310526     0.7810526     0.8310526     0.8810526     0.9310526     1.0000000     0.0000000     0.0500000     0.1000000     0.1500000     0.2000000     0.2500000     0.2852632     0.3352632     0.3852632     0.4352632     0.4852632     0.5352632     0.5852632     0.6352632     0.6852632     0.7352632     0.7852632     0.8352632     0.8852632     0.9352632     1.0000000     0.0000000     0.0500000     0.1000000     0.1500000     0.2000000     0.2500000     0.2894737     0.3394737     0.3894737     0.4394737     0.4894737     0.5394737     0.5894737     0.6394737     0.6894737     0.7394737     0.7894737     0.8394737     0.8894737     0.9394737     1.0000000     0.0000000     0.0500000     0.1000000     0.1500000     0.2000000     0.2500000     0.2936842     0.3436842     0.3936842     0.4436842     0.4936842     0.5436842     0.5936842     0.6436842     0.6936842     0.7436842     0.7936842     0.8436842     0.8936842     0.9436842     1.0000000     0.0000000     0.0500000     0.1000000     0.1500000     0.2000000     0.2500000     0.2978947     0.3478947     0.3978947     0.4478947     0.4978947
     0.5478947     0.5978947     0.6478947     0.6978947     0.7478947     0.7978947     0.8478947     0.8978947     0.9478947     1.0000000     0.0000000     0.0400000     0.0900000     0.1400000     0.1900000     0.2400000     0.3021053     0.3521053     0.4021053     0.4521053     0.5021053     0.5521053     0.6021053     0.6521053     0.7021053     0.7521053     0.8021053     0.8521053     0.9021053     0.9521053     1.0000000     0.0000000     0.0600000     0.1100000     0.1600000     0.2100000     0.2600000     0.3063158     0.3563158     0.4063158     0.4563158     0.5063158     0.5563158     0.6063158     0.6563158     0.7063158     0.7563158     0.8063158     0.8563158     0.9063158     0.9563158     1.0000000     0.0000000     0.0400000     0.0900000     0.1400000     0.1900000     0.2400000     0.3105263     0.3605263     0.4105263     0.4605263     0.5105263     0.5605263     0.6105263     0.6605263     0.7105263     0.7605263     0.8105263     0.8605263     0.9105263     0.9605263     1.0000000     0.0000000     0.0600000     0.1100000     0.1600000     0.2100000     0.2600000     0.3147368     0.3647368     0.4147368     0.4647368     0.5147368     0.5647368     0.6147368     0.6647368     0.7147368     0.7647368     0.8147368     0.8647368     0.9147368     0.9647368     1.0000000     0.0000000     0.0400000     0.0900000     0.1400000     0.1900000     0.2400000
     0.3189474     0.3689474     0.4189474     0.4689474     0.5189474     0.5689474     0.6189474     0.6689474     0.7189474     0.7689474     0.8189474     0.8689474     0.9189474     0.9689474     1.0000000     0.0000000     0.0600000     0.1100000     0.1600000     0.2100000     0.2600000     0.3231579     0.3731579     0.4231579     0.4731579     0.5231579     0.5731579     0.6231579     0.6731579     0.7231579     0.7731579     0.8231579     0.8731579     0.9231579     0.9731579     1.0000000     0.0000000     0.0400000     0.0900000     0.1400000     0.1900000     0.2400000     0.3273684     0.3773684     0.4273684     0.4773684     0.5273684     0.5773684     0.6273684     0.6773684     0.7273684     0.7773684     0.8273684     0.8773684     0.9273684     0.9773684     1.0000000     0.0000000     0.0600000     0.1100000     0.1600000     0.2100000     0.2600000     0.3315789     0.3815789     0.4315789     0.4815789     0.5315789     0.5815789     0.6315789     0.6815789     0.7315789     0.7815789     0.8315789     0.8815789     0.9315789     0.9815789     1.0000000     0.0000000     0.0400000     0.0900000     0.1400000     0.1900000     0.2400000     0.3357895     0.3857895     0.4357895     0.4857895     0.5357895     0.5857895     0.6357895     0.6857895     0.7357895     0.7857895     0.8357895     0.8857895     0.9357895     0.9857895     1.0000000     0.0000000
     0.0600000     0.1100000     0.1600000     0.2100000     0.2600000     0.3400000     0.3900000     0.4400000     0.4900000     0.5400000     0.5900000     0.6400000     0.6900000     0.7400000     0.7900000     0.8400000     0.8900000     0.9400000     0.9900000     1.0000000     0.0000000     0.0500000     0.1000000     0.1500000     0.2000000     0.2500000     0.3442105     0.3942105     0.4442105     0.4942105     0.5442105     0.5942105     0.6442105     0.6942105     0.7442105     0.7942105     0.8442105     0.8942105     0.9442105     0.9942105     1.0000000
     0.0000000     0.0000000     0.0000000     0.0000000     0.0000000     0.0000000     0.0000000     0.0000000     0.0000000     0.0000000     0.0000000     0.0000000     0.0000000     0.0000000     0.0000000     0.0000000     0.0000000     0.0000000     0.0000000     0.0000000     0.0000000     0.0500000     0.0500000     0.0500000     0.0500000     0.0500000     0.0500000     0.0500000     0.0500000     0.0500000     0.0500000     0.0500000     0.0500000     0.0500000     0.0600000     0.0400000     0.0600000     0.0400000     0.0600000     0.0400000     0.0600000     0.0500000     0.1000000     0.1000000     0.1000000     0.1000000     0.1000000     0.1000000     0.1000000     0.1000000     0.1000000     0.1000000     0.1000000     0.1000000     0.1000000     0.1100000     0.0900000     0.1100000     0.0900000     0.1100000     0.0900000     0.1100000     0.1000000     0.1500000     0.1500000     0.1500000     0.1500000     0.1500000     0.1500000     0.1500000     0.1500000     0.1500000     0.1500000     0.1500000     0.1500000     0.1500000     0.1600000     0.1400000     0.1600000     0.1400000     0.1600000     0.1400000     0.1600000     0.1500000     0.2000000     0.2000000     0.2000000     0.2000000     0.2000000     0.2000000     0.2000000     0.2000000     0.2000000     0.2000000     0.2000000     0.2000000     0.2000000     0.2100000     0.1900000     0.2100000
     0.1900000     0.2100000     0.1900000     0.2100000     0.2000000     0.2500000     0.2500000     0.2500000     0.2500000     0.2500000     0.2500000     0.2500000     0.2500000     0.2500000     0.2500000     0.2500000     0.2500000     0.2500000     0.2600000     0.2400000     0.2600000     0.2400000     0.2600000     0.2400000     0.2600000     0.2500000     0.3000000     0.3000000     0.3000000     0.3000000     0.3000000     0.3000000     0.3000000     0.3000000     0.3000000     0.3000000     0.3000000     0.3000000     0.3000000     0.3100000     0.2900000     0.3100000     0.2900000     0.3100000     0.2900000     0.3100000     0.3000000     0.3500000     0.3500000     0.3500000     0.3500000     0.3500000     0.3500000     0.3500000     0.3500000     0.3500000     0.3500000     0.3500000     0.3500000     0.3500000     0.3600000     0.3400000     0.3600000     0.3400000     0.3600000     0.3400000     0.3600000     0.3500000     0.4000000     0.4000000     0.4000000     0.4000000     0.4000000     0.4000000     0.4000000     0.4000000     0.4000000     0.4000000     0.4000000     0.4000000     0.4000000     0.4100000     0.3900000     0.4100000     0.3900000     0.4100000     0.3900000     0.4100000     0.4000000     0.4500000     0.4500000     0.4500000     0.4500000     0.4500000     0.4500000     0.4500000     0.4500000     0.4500000     0.4500000     0.4500000
     0.4500000     0.4500000     0.4600000     0.4400000     0.4600000     0.4400000     0.4600000     0.4400000     0.4600000     0.4500000     0.5000000     0.5000000     0.5000000     0.5000000     0.5000000     0.5000000     0.5000000     0.5000000     0.5000000     0.5000000     0.5000000     0.5000000     0.5000000     0.5100000     0.4900000     0.5100000     0.4900000     0.5100000     0.4900000     0.5100000     0.5000000     0.5500000     0.5500000     0.5500000     0.5500000     0.5500000     0.5500000     0.5500000     0.5500000     0.5500000     0.5500000     0.5500000     0.5500000     0.5500000     0.5600000     0.5400000     0.5600000     0.5400000     0.5600000     0.5400000     0.5600000     0.5500000     0.6000000     0.6000000     0.6000000     0.6000000     0.6000000     0.6000000     0.6000000     0.6000000     0.6000000     0.6000000     0.6000000     0.6000000     0.6000000     0.6100000     0.5900000     0.6100000     0.5900000     0.6100000     0.5900000     0.6100000     0.6000000     0.6500000     0.6500000     0.6500000     0.6500000     0.6500000     0.6500000     0.6500000     0.6500000     0.6500000     0.6500000     0.6500000     0.6500000     0.6500000     0.6600000     0.6400000     0.6600000     0.6400000     0.6600000     0.6400000     0.6600000     0.6500000     0.7000000     0.7000000     0.7000000     0.7000000     0.7000000     0.7000000
     0.7000000     0.7000000     0.7000000     0.7000000     0.7000000     0.7000000     0.7000000     0.7100000     0.6900000     0.7100000     0.6900000     0.7100000     0.6900000     0.7100000     0.7000000     0.7500000     0.7500000     0.7500000     0.7500000     0.7500000     0.7500000     0.7500000     0.7500000     0.7500000     0.7500000     0.7500000     0.7500000     0.7500000     0.7600000     0.7400000     0.7600000     0.7400000     0.7600000     0.7400000     0.7600000     0.7500000     0.8000000     0.8000000     0.8000000     0.8000000     0.8000000     0.8000000     0.8000000     0.8000000     0.8000000     0.8000000     0.8000000     0.8000000     0.8000000     0.8100000     0.7900000     0.8100000     0.7900000     0.8100000     0.7900000     0.8100000     0.8000000     0.8500000     0.8500000     0.8500000     0.8500000     0.8500000     0.8500000     0.8500000     0.8500000     0.8500000     0.8500000     0.8500000     0.8500000     0.8500000     0.8600000     0.8400000     0.8600000     0.8400000     0.8600000     0.8400000     0.8600000     0.8500000     0.9000000     0.9000000     0.9000000     0.9000000     0.9000000     0.9000000     0.9000000     0.9000000     0.9000000     0.9000000     0.9000000     0.9000000     0.9000000     0.9100000     0.8900000     0.9100000     0.8900000     0.9100000     0.8900000     0.9100000     0.9000000     0.9500000
     0.9500000     0.9500000     0.9500000     0.9500000     0.9500000     0.9500000     0.9500000     0.9500000     0.9500000     0.9500000     0.9500000     0.9500000     0.9600000     0.9400000     0.9600000     0.9400000     0.9600000     0.9400000     0.9600000     0.9500000     1.0000000     1.0000000     1.0000000     1.0000000     1.0000000     1.0000000     1.0000000     1.0000000     1.0000000     1.0000000     1.0000000     1.0000000     1.0000000     1.0000000     1.0000000     1.0000000     1.0000000     1.0000000     1.0000000     1.0000000     1.0000000
     0.2537500     0.4137500     0.5837500     0.7637500     0.9537498     1.0830576     1.2036746     1.4160955     1.6385168     1.8709378     2.1133585     2.3657796     2.6543729     2.8942304     3.2042174     3.4681125     3.8000510     4.0819950     4.4358845     4.8791733     0.6237500     0.7837501     0.9537500     1.1337500     1.3237498     1.4614694     1.5911772     1.8044405     2.0277038     2.2609665     2.5042300     2.7574935     3.0588562     3.2940192     3.5772824     3.8705449     4.1738091     4.4870710     4.8103342     5.2929611     1.0137502     1.1737502     1.3437500     1.5237501     1.7137501     1.8599070     1.9987507     2.2128558     2.4369612     2.6710665     2.9151716     3.1692772     3.4734821     3.7074876     3.9915929     4.2856975     4.5898032     4.9039087     5.2280140     5.6991034     1.4237502     1.5837501     1.7537498     1.9337502     2.1237502     2.2783694     2.4263949     2.6413424     2.8662901     3.1012373     3.3461847     3.6011319     3.9081788     4.1410265     4.4259739     4.7209215     5.0258684     5.3408155     5.6657629     6.1252465     1.8537501     2.0137501     2.1837499     2.3637502     2.5537500     2.7168553     2.8741102     3.0898995     3.3156891     3.5514786     3.7972677     4.0530572     4.3629475     4.5946360     4.8804255     5.1762152     5.4820042     5.7977943     6.1235838     6.5713902
     2.3037500     2.4637499     2.6337497     2.8137503     3.0037501     3.1753638     3.3418961     3.5585277     3.7851591     4.0217910     4.2684221     4.5250540     4.8377857     5.0683179     5.3549490     5.6515808     5.9582114     6.2748442     6.6014757     7.0375352     2.7737501     2.9337502     3.1037495     3.2837496     3.4737499     3.6538942     3.8297534     4.0472269     4.2747006     4.5121746     4.7596483     5.0171218     5.3326960     5.5620694     5.8495426     6.1470165     6.4544911     6.7719650     7.0994377     7.5236754     3.2637503     3.4237504     3.5937498     3.7737498     3.9637496     4.1524458     4.3376818     4.5559969     4.7843132     5.0226288     5.2709451     5.5292602     5.8476753     6.0758915     6.3642082     6.6625233     6.9708395     7.2891545     7.6174707     8.0298119     3.7737503     3.9337502     4.1037493     4.2837501     4.4737501     4.6710176     4.8656802     5.0848379     5.3139963     5.5531535     5.8023119     6.0614696     6.3827271     6.6097851     6.8989429     7.1981010     7.5072584     7.8264170     8.1555748     8.5559416     4.2826481     4.4473000     4.6163001     4.7953005     4.9842997     5.2108622     5.4137502     5.6337500     5.8637505     6.1037507     6.3537502     6.6137500     6.9378490     7.1637497     7.4537492     7.7537498     8.0637493     8.3837500     8.7137489     9.1020641
     4.8842320     5.0137506     5.1837502     5.3637505     5.5537500     5.7378216     5.9818907     6.2027321     6.4335742     6.6744175     6.9252596     7.1861010     7.5130434     7.7377858     8.0286283     8.3294687     8.6403122     8.9611549     9.2919970     9.6681786     5.3983092     5.5837507     5.7537508     5.9337506     6.1237507     6.3690867     6.5701032     6.7917876     7.0234718     7.2651558     7.5168400     7.7785244     8.1083078     8.3318920     8.6235771     8.9252605     9.2369452     9.5586300     9.8903131    10.2542839     6.0461936     6.1737499     6.3437500     6.5237498     6.7137499     6.9152894     7.1783857     7.4009113     7.6334381     7.8759632     8.1284904     8.3910170     8.7236414     8.9460678     9.2385950     9.5411215     9.8536472    10.1761742    10.5086994    10.8603802     6.5963464     6.7837491     6.9537492     7.1337495     7.3237495     7.5862212     7.8067369     8.0301065     8.2634745     8.5068436     8.7602119     9.0235796     9.3590488     9.5803165     9.8736849    10.1770535    10.4904213    10.8137903    11.1471586    11.4864712     7.2881575     7.4137502     7.5837498     7.7637496     7.9537497     8.1728086     8.4551640     8.6793737     8.9135847     9.1577940     9.4120064     9.6762161    10.0145273    10.2346363    10.5288467    10.8330574    11.1472702    11.4714775    11.8056889    12.1325731
     7.8743858     8.0637503     8.2337494     8.4137497     8.6037493     8.8834553     9.1236582     9.3487101     9.5837631     9.8288155    10.0838680    10.3489218    10.6900740    10.9090271    11.2040796    11.5091305    11.8241854    12.1492357    12.4842911    12.7987089     8.6101198     8.7337513     8.9037514     9.0837507     9.2737513     9.5103807     9.8122253    10.0381203    10.2740154    10.5199099    10.7758036    11.0416985    11.3856926    11.6034889    11.8993826    12.2052755    12.5211725    12.8470659    13.1829624    13.4849358     9.2324228     9.4237518     9.5937500     9.7737494     9.9637499    10.2607870    10.5208616    10.7475977    10.9843349    11.2310715    11.4878082    11.7545452    12.1013832    12.3180199    12.6147547    12.9214916    13.2382288    13.5649662    13.9017029    14.1913738    10.0120802    10.1337509    10.3037491    10.4837484    10.6737490    10.9280090    11.2495689    11.4771490    11.7147284    11.9623051    12.2198849    12.4874630    12.8371429    13.0526228    13.3501997    13.6577806    13.9753590    14.3029385    14.6405172    14.9182997    10.6947498    10.8802996    11.0513020    11.2323017    11.4233007    11.7196741    11.9983501    12.2267704    12.4651909    12.7136116    12.9720335    13.2404537    13.5448170    13.8071947    14.0764904    14.4149971    14.7023401    15.0627975    15.3681917    15.6102581
     3.1000001     3.2999997     3.4999986     3.7000000     3.9752111     4.0564322     4.0654082     4.3484211     4.5484214     4.7484207     4.9484134     5.3351989     4.6312270     6.7608995     4.2558293     7.2904620     4.6518545     7.6865654     5.1814075     7.1430397     3.1000009     3.2999976     3.4999993     3.7000000     3.9715693     4.0474091     4.0888758     4.3652625     4.5652657     4.7652588     4.9652653     5.5167160     3.7899158     8.2440901     2.6740887     8.9544353     3.0781386     9.3582497     3.9274747     7.5225487     3.1000016     3.3000004     3.4999962     3.7000058     3.9681969     4.0488997     4.1106820     4.3821082     4.5821023     4.7821026     4.9821076     5.5532732     3.7119339     8.3516893     2.4705553     9.0778446     2.8705535     9.4778309     3.7323842     7.5931292     3.1000018     3.2999964     3.4999993     3.7000034     3.9653037     4.0540380     4.1313791     4.3989530     4.5989532     4.7989421     4.9989524     5.5898299     3.6480093     8.5036631     2.3218298     9.2494631     2.7218020     9.6494665     3.6010697     7.6808019     3.1000018     3.3000023     3.4999964     3.7000065     3.9628778     4.0607576     4.1512485     4.4157915     4.6157856     4.8157864     5.0157971     5.6264095     3.5840917     8.6556129     2.1730919     9.4210892     2.5730875     9.8210897     3.4707122     7.7774291
     3.0999980     3.3000014     3.5000014     3.7000053     3.9609187     4.0681658     4.1704769     4.4326286     4.6326346     4.8326235     5.0326352     5.6629753     3.5201628     8.8076210     2.0243373     9.5927219     2.4243460     9.9927082     3.3413100     7.8846483     3.1000087     3.2999942     3.4999917     3.7000074     3.9593594     4.0759978     4.1891723     4.4494753     4.6494813     4.8494701     5.0494690     5.6995401     3.4562502     8.9595737     1.8756049     9.7643585     2.2756155    10.1643448     3.2129328     8.0045557     3.1000071     3.2999864     3.5000014     3.6999993     3.9581292     4.0840511     4.2074509     4.4663172     4.6663170     4.8663235     5.0663104     5.7360859     3.3923128     9.1115551     1.7268790     9.9359808     2.1268752    10.3359480     3.0856671     8.1398716     3.0999968     3.2999942     3.5000036     3.7000074     3.9572017     4.0922041     4.2253690     4.4831638     4.6831641     4.8831468     5.0831695     5.7726398     3.3284070     9.2635288     1.5781493    10.1076031     1.9781463    10.5076151     2.9594002     8.2941008     2.9270313     3.4308302     3.4800103     3.6799960     4.0539737     4.0928011     4.1229601     4.4999819     4.7000160     4.9000015     5.0999975     5.8092093     3.2644501     9.4155045     1.4294277    10.2792225     1.8294195    10.6792431     2.8341887     8.4720554
     3.3803160     3.0172637     3.5000081     3.6999815     3.6957376     4.1211977     4.5072441     4.5168381     4.7168484     4.9168558     5.1168327     5.8457818     3.2005613     9.5674686     1.2806672    10.4508343     1.6806885    10.8508558     2.7100382     8.6802158     2.8115268     3.5860407     3.5000081     3.6999815     4.1961069     4.1183066     4.0358787     4.5336943     4.7336822     4.9336758     5.1336765     5.8823681     3.1366224     9.7194471     1.1319389    10.6224957     1.5319560    11.0224819     2.5867417     8.9277964     3.4002457     2.9973059     3.5000000     3.6999977     3.7174499     4.1342530     4.5218172     4.5505319     4.7505202     4.9505281     5.1505241     5.9189000     3.0726886     9.8714285     0.9832292    10.7940941     1.3832382    11.1940899     2.4641235     9.2283688     2.7915711     3.6059844     3.5000081     3.6999934     4.1783209     4.1338391     4.0888314     4.5673828     4.7673812     4.9673548     5.1673779     5.9554667     3.0087674    10.0233650     0.8345082    10.9657555     1.2344377    11.3657551     2.3417788     9.6022749     3.4202094     2.9773226     3.4999962     3.7000172     3.7363522     4.1487632     4.5384054     4.5842152     4.7842007     4.9842110     5.1842213     5.9920521     2.9448392    10.1753263     0.6857345    11.1374321     1.0856708    11.5373716     2.2190516    10.0822506
     2.7716393     3.6259043     3.5000081     3.7000053     4.1633601     4.1501880     4.1381960     4.6010594     4.8010449     5.0010552     5.2010779     6.0285773     2.8809609    10.3273478     0.5369756    11.3089943     0.9370405    11.7089634     2.0950530    10.7231293     3.4401650     2.9574027     3.5000081     3.6999815     3.7531130     4.1640544     4.5566802     4.6179156     4.8178663     5.0179214     5.2178621     6.0651512     2.8169916    10.4793854     0.3882163    11.4806213     0.7882885    11.8806305     1.9681604    11.6257849     2.7516749     3.6458766     3.4999881     3.7000096     4.1508117     4.1668487     4.1847749     4.6347661     4.8347287     5.0347376     5.2347221     6.1017561     2.7530622    10.6313066     0.2395003    11.6522417     0.6395722    12.0522375     1.8364587    12.9935522     3.4601445     2.9374352     3.4999604     3.7000172     3.7681096     4.1798563     4.5763483     4.6515694     4.8515773     5.0515642     5.2515750     6.1382976     2.7013967    10.8199425     0.1478774    11.8644276     0.5518966    12.2683020     1.7628828    15.3224592     2.9549375     3.4846535     3.5200348     3.7199728     4.0774817     4.1946535     4.3101792     4.6684246     4.8684096     5.0684204     5.2684307     5.8029628     4.1223350     8.2383852     3.1474421     8.9971647     3.5434620     9.3932705     4.0592189    15.5222254
     7.1999998     7.2000008     7.2000008     7.1999984     7.1999984     7.1945438     7.2069941     7.1999998     7.2000089     7.2000008     7.2000027     7.1842756     7.3235598     6.9728279     7.4542003     6.9536757     7.4641366     6.9439240     7.4646950     7.1166277     7.6000013     7.5999994     7.6000013     7.6000009     7.6000023     7.5993185     7.6064262     7.5999975     7.5999918     7.5999985     7.5999956     7.5704069     7.7035022     7.4891033     7.7279143     7.4728889     7.7177930     7.4825091     7.6701980     7.6661587     7.9999990     7.9999990     8.0000000     7.9999976     8.0000010     8.0002136     8.0060158     7.9999957     8.0000029     8.0000048     8.0000095     7.9687390     8.1806469     7.7667804     8.2788677     7.7393432     8.2788782     7.7393165     8.2399864     7.9785104     8.4000006     8.3999996     8.3999987     8.4000063     8.4000006     8.4005346     8.4056873     8.4000006     8.3999968     8.3999977     8.3999872     8.3670778     8.5874529     8.1553946     8.6927996     8.1262703     8.6928024     8.1262665     8.6524506     8.3711939     8.7999973     8.8000002     8.7999992     8.8000011     8.7999983     8.8005867     8.8054399     8.7999983     8.8000097     8.8000040     8.8000011     8.7654219     8.9942455     8.5440111     9.1067505     8.5132523     9.1067533     8.5132608     9.0648518     8.7631397
     9.2000017     9.1999950     9.1999941     9.1999931     9.1999989     9.2004929     9.2052326     9.2000027     9.1999903     9.2000027     9.1999903     9.1637630     9.4010382     8.9326324     9.5206957     8.9001770     9.5207129     8.9001980     9.4771776     9.1541119     9.5999928     9.6000042     9.5999985     9.5999994     9.6000051     9.6003513     9.6050806     9.5999966     9.6000023     9.5999966     9.6000109     9.5620947     9.8078489     9.3212662     9.9346399     9.2871675     9.9346437     9.2871675     9.8893890     9.5439606    10.0000114    10.0000057    10.0000048    10.0000067     9.9999952    10.0001097    10.0049562    10.0000095    10.0000095    10.0000038    10.0000010     9.9604435    10.2146473     9.7098646    10.3485918     9.6741419    10.3485708     9.6741219    10.3015242     9.9324903    10.3143425    10.1851435    10.1752434    10.1653433    10.1554432    10.2849350    10.4048595    10.3999929    10.4000044    10.3999987    10.4000015    10.3587770    10.6214705    10.0985079    10.7625103    10.0611038    10.7625065    10.0610886    10.7135639    10.3193445    11.0466061    11.3819199    11.3913803    11.4310064    11.5054350    11.0812492    10.8149157    10.7999992    10.7999783    10.7999783    10.7999992    10.7571192    11.0282431    10.4871120    11.1764784    10.4480743    11.1764784    10.4480743    11.1255665    10.7041149
    10.6171350    10.3121958    10.1293726    10.0596533    10.0716219    10.5393438    11.1839905    11.1999941    11.2000093    11.2000170    11.2000122    11.1554680    11.4350748    10.8757343    11.5904188    10.8350220    11.5904369    10.8350563    11.5373974    11.0861988    12.0811148    13.0344105    13.0000210    13.0799866    13.2784462    12.1751909    11.6250648    11.6000004    11.5999947    11.5999851    11.5999937    11.5537949    11.8418493    11.2643661    12.0043716    11.2219877    12.0043421    11.2219992    11.9492273    11.4648819    11.2833967    10.8010750    10.5999813    10.5199795    10.5130177    11.2527399    11.9855680    12.0000219    12.0000048    12.0000000    12.0000086    11.9521341    12.2486687    11.6529627    12.4182758    11.6089602    12.4183025    11.6089411    12.3609943    11.8388672    12.8731470    13.8423986    13.8000107    13.8800125    14.0713310    12.9931479    12.4234571    12.3999901    12.3999929    12.4000053    12.3999739    12.3504705    12.6554766    12.0416088    12.8322477    11.9959564    12.8322353    11.9959059    12.7726746    12.2063828    12.0754099    11.6090736    11.4000063    11.3199930    11.3054495    12.0659828    12.7870216    12.7999964    12.8000088    12.8000240    12.7999907    12.7488079    13.0622454    12.4302111    13.2462244    12.3828754    13.2462320    12.3828983    13.1844187    12.5646801
    13.6651735    14.6503401    14.6000004    14.6800137    14.8653717    13.8050909    13.2221479    13.2000027    13.2000027    13.1999712    13.1999989    13.1471806    13.4690676    12.8188610    13.6601210    12.7698584    13.6601124    12.7698584    13.5963163    12.9087477    12.8674011    12.4170732    12.2000074    12.1199942    12.0987635    12.8768110    13.5882750    13.5999861    13.5999775    13.6000080    13.5999918    13.5454836    13.8758421    13.2074490    14.0740862    13.1567802    14.0740938    13.1568499    14.0084066    13.2299042    14.4571800    15.4583836    15.3999710    15.4800205    15.6603012    14.6129017    14.0210533    14.0000000    14.0000248    14.0000000    13.9999971    13.9438257    14.2826824    13.5960302    14.4880056    13.5437832    14.4879818    13.5437422    14.4208584    13.5102758    13.7732725    13.5942650    13.3795481    13.3097868    13.2928352    13.8586655    14.3895369    14.4000273    14.3999987    14.4000034    14.4000311    14.3421574    14.6284008    14.0764723    14.7593355    14.0321646    14.7492361    14.0417776    14.6711826    13.7270050    14.9473677    15.1286564    15.1254854    15.1551933    15.2163954    14.9796076    14.8132820    14.8000174    14.8000174    14.8000212    14.8000002    14.7718601    15.0323753    14.5042477    15.1975212    14.4562988    15.2074432    14.4465103    15.2048073    13.8207664