 VARIABLES = "X","Y","P","GradP_X","GradP_Y","GradP_Error_X","GradP_Error_Y","V_x","V_y", "DivV","DivV_Exact","DivV_Error","LaplP","LaplP_Exact","LaplP_Error","RotV","RotV_Exact","RotV_Error","VFlos_X","VFlos_Y","T","GradT_X","GradT_Y","ResT","TFlos","T_Error"
 ZONE I=          21 ,J=          21 , DATAPACKING=BLOCK, VARLOCATION=([3-30]=CELLCENTERED)
     0.0000000     0.0500000     0.1000000     0.1500000     0.2000000     0.2500000     0.3000000     0.3500000     0.4000000     0.4500000     0.5000000     0.5500000     0.6000000     0.6500000     0.7000000     0.7500000     0.8000000     0.8500000     0.9000000     0.9500000     1.0000000     0.0000000     0.0500000     0.1000000     0.1500000     0.2000000     0.2500000     0.3000000     0.3500000     0.4000000     0.4500000     0.5000000     0.5500000     0.6000000     0.6500000     0.7000000     0.7500000     0.8000000     0.8500000     0.9000000     0.9500000     1.0000000     0.0000000     0.0500000     0.1000000     0.1500000     0.2000000     0.2500000     0.3000000     0.3500000     0.4000000     0.4500000     0.5000000     0.5500000     0.6000000     0.6500000     0.7000000     0.7500000     0.8000000     0.8500000     0.9000000     0.9500000     1.0000000     0.0000000     0.0500000     0.1000000     0.1500000     0.2000000     0.2500000     0.3000000     0.3500000     0.4000000     0.4500000     0.5000000     0.5500000     0.6000000     0.6500000     0.7000000     0.7500000     0.8000000     0.8500000     0.9000000     0.9500000     1.0000000     0.0000000     0.0500000     0.1000000     0.1500000     0.2000000     0.2500000     0.3000000     0.3500000     0.4000000     0.4500000     0.5000000     0.5500000     0.6000000     0.6500000     0.7000000     0.7500000
     0.8000000     0.8500000     0.9000000     0.9500000     1.0000000     0.0000000     0.0500000     0.1000000     0.1500000     0.2000000     0.2500000     0.3000000     0.3500000     0.4000000     0.4500000     0.5000000     0.5500000     0.6000000     0.6500000     0.7000000     0.7500000     0.8000000     0.8500000     0.9000000     0.9500000     1.0000000     0.0000000     0.0500000     0.1000000     0.1500000     0.2000000     0.2500000     0.3000000     0.3500000     0.4000000     0.4500000     0.5000000     0.5500000     0.6000000     0.6500000     0.7000000     0.7500000     0.8000000     0.8500000     0.9000000     0.9500000     1.0000000     0.0000000     0.0500000     0.1000000     0.1500000     0.2000000     0.2500000     0.3000000     0.3500000     0.4000000     0.4500000     0.5000000     0.5500000     0.6000000     0.6500000     0.7000000     0.7500000     0.8000000     0.8500000     0.9000000     0.9500000     1.0000000     0.0000000     0.0500000     0.1000000     0.1500000     0.2000000     0.2500000     0.3000000     0.3500000     0.4000000     0.4500000     0.5000000     0.5500000     0.6000000     0.6500000     0.7000000     0.7500000     0.8000000     0.8500000     0.9000000     0.9500000     1.0000000     0.0000000     0.0500000     0.1000000     0.1500000     0.2000000     0.2500000     0.3000000     0.3500000     0.4000000     0.4500000     0.5000000
     0.5500000     0.6000000     0.6500000     0.7000000     0.7500000     0.8000000     0.8500000     0.9000000     0.9500000     1.0000000     0.0000000     0.0500000     0.1000000     0.1500000     0.2000000     0.2500000     0.3000000     0.3500000     0.4000000     0.4500000     0.5000000     0.5500000     0.6000000     0.6500000     0.7000000     0.7500000     0.8000000     0.8500000     0.9000000     0.9500000     1.0000000     0.0000000     0.0500000     0.1000000     0.1500000     0.2000000     0.2500000     0.3000000     0.3500000     0.4000000     0.4500000     0.5000000     0.5500000     0.6000000     0.6500000     0.7000000     0.7500000     0.8000000     0.8500000     0.9000000     0.9500000     1.0000000     0.0000000     0.0500000     0.1000000     0.1500000     0.2000000     0.2500000     0.3000000     0.3500000     0.4000000     0.4500000     0.5000000     0.5500000     0.6000000     0.6500000     0.7000000     0.7500000     0.8000000     0.8500000     0.9000000     0.9500000     1.0000000     0.0000000     0.0500000     0.1000000     0.1500000     0.2000000     0.2500000     0.3000000     0.3500000     0.4000000     0.4500000     0.5000000     0.5500000     0.6000000     0.6500000     0.7000000     0.7500000     0.8000000     0.8500000     0.9000000     0.9500000     1.0000000     0.0000000     0.0500000     0.1000000     0.1500000     0.2000000     0.2500000
     0.3000000     0.3500000     0.4000000     0.4500000     0.5000000     0.5500000     0.6000000     0.6500000     0.7000000     0.7500000     0.8000000     0.8500000     0.9000000     0.9500000     1.0000000     0.0000000     0.0500000     0.1000000     0.1500000     0.2000000     0.2500000     0.3000000     0.3500000     0.4000000     0.4500000     0.5000000     0.5500000     0.6000000     0.6500000     0.7000000     0.7500000     0.8000000     0.8500000     0.9000000     0.9500000     1.0000000     0.0000000     0.0500000     0.1000000     0.1500000     0.2000000     0.2500000     0.3000000     0.3500000     0.4000000     0.4500000     0.5000000     0.5500000     0.6000000     0.6500000     0.7000000     0.7500000     0.8000000     0.8500000     0.9000000     0.9500000     1.0000000     0.0000000     0.0500000     0.1000000     0.1500000     0.2000000     0.2500000     0.3000000     0.3500000     0.4000000     0.4500000     0.5000000     0.5500000     0.6000000     0.6500000     0.7000000     0.7500000     0.8000000     0.8500000     0.9000000     0.9500000     1.0000000     0.0000000     0.0500000     0.1000000     0.1500000     0.2000000     0.2500000     0.3000000     0.3500000     0.4000000     0.4500000     0.5000000     0.5500000     0.6000000     0.6500000     0.7000000     0.7500000     0.8000000     0.8500000     0.9000000     0.9500000     1.0000000     0.0000000
     0.0500000     0.1000000     0.1500000     0.2000000     0.2500000     0.3000000     0.3500000     0.4000000     0.4500000     0.5000000     0.5500000     0.6000000     0.6500000     0.7000000     0.7500000     0.8000000     0.8500000     0.9000000     0.9500000     1.0000000     0.0000000     0.0500000     0.1000000     0.1500000     0.2000000     0.2500000     0.3000000     0.3500000     0.4000000     0.4500000     0.5000000     0.5500000     0.6000000     0.6500000     0.7000000     0.7500000     0.8000000     0.8500000     0.9000000     0.9500000     1.0000000
     0.0000000     0.0000000     0.0000000     0.0000000     0.0000000     0.0000000     0.0000000     0.0000000     0.0000000     0.0000000     0.0000000     0.0000000     0.0000000     0.0000000     0.0000000     0.0000000     0.0000000     0.0000000     0.0000000     0.0000000     0.0000000     0.0500000     0.0500000     0.0500000     0.0500000     0.0500000     0.0500000     0.0500000     0.0500000     0.0500000     0.0500000     0.0500000     0.0500000     0.0500000     0.0500000     0.0500000     0.0500000     0.0500000     0.0500000     0.0500000     0.0500000     0.0500000     0.1000000     0.1000000     0.1000000     0.1000000     0.1000000     0.1000000     0.1000000     0.1000000     0.1000000     0.1000000     0.1000000     0.1000000     0.1000000     0.1000000     0.1000000     0.1000000     0.1000000     0.1000000     0.1000000     0.1000000     0.1000000     0.1500000     0.1500000     0.1500000     0.1500000     0.1500000     0.1500000     0.1500000     0.1500000     0.1500000     0.1500000     0.1500000     0.1500000     0.1500000     0.1500000     0.1500000     0.1500000     0.1500000     0.1500000     0.1500000     0.1500000     0.1500000     0.2000000     0.2000000     0.2000000     0.2000000     0.2000000     0.2000000     0.2000000     0.2000000     0.2000000     0.2000000     0.2000000     0.2000000     0.2000000     0.2000000     0.2000000     0.2000000
     0.2000000     0.2000000     0.2000000     0.2000000     0.2000000     0.2500000     0.2500000     0.2500000     0.2500000     0.2500000     0.2500000     0.2500000     0.2500000     0.2500000     0.2500000     0.2500000     0.2500000     0.2500000     0.2500000     0.2500000     0.2500000     0.2500000     0.2500000     0.2500000     0.2500000     0.2500000     0.3000000     0.3000000     0.3000000     0.3000000     0.3000000     0.3000000     0.3000000     0.3000000     0.3000000     0.3000000     0.3000000     0.3000000     0.3000000     0.3000000     0.3000000     0.3000000     0.3000000     0.3000000     0.3000000     0.3000000     0.3000000     0.3500000     0.3500000     0.3500000     0.3500000     0.3500000     0.3500000     0.3500000     0.3500000     0.3500000     0.3500000     0.3500000     0.3500000     0.3500000     0.3500000     0.3500000     0.3500000     0.3500000     0.3500000     0.3500000     0.3500000     0.3500000     0.4000000     0.4000000     0.4000000     0.4000000     0.4000000     0.4000000     0.4000000     0.4000000     0.4000000     0.4000000     0.4000000     0.4000000     0.4000000     0.4000000     0.4000000     0.4000000     0.4000000     0.4000000     0.4000000     0.4000000     0.4000000     0.4500000     0.4500000     0.4500000     0.4500000     0.4500000     0.4500000     0.4500000     0.4500000     0.4500000     0.4500000     0.4500000
     0.4500000     0.4500000     0.4500000     0.4500000     0.4500000     0.4500000     0.4500000     0.4500000     0.4500000     0.4500000     0.5000000     0.5000000     0.5000000     0.5000000     0.5000000     0.5000000     0.5000000     0.5000000     0.5000000     0.5000000     0.5000000     0.5000000     0.5000000     0.5000000     0.5000000     0.5000000     0.5000000     0.5000000     0.5000000     0.5000000     0.5000000     0.5500000     0.5500000     0.5500000     0.5500000     0.5500000     0.5500000     0.5500000     0.5500000     0.5500000     0.5500000     0.5500000     0.5500000     0.5500000     0.5500000     0.5500000     0.5500000     0.5500000     0.5500000     0.5500000     0.5500000     0.5500000     0.6000000     0.6000000     0.6000000     0.6000000     0.6000000     0.6000000     0.6000000     0.6000000     0.6000000     0.6000000     0.6000000     0.6000000     0.6000000     0.6000000     0.6000000     0.6000000     0.6000000     0.6000000     0.6000000     0.6000000     0.6000000     0.6500000     0.6500000     0.6500000     0.6500000     0.6500000     0.6500000     0.6500000     0.6500000     0.6500000     0.6500000     0.6500000     0.6500000     0.6500000     0.6500000     0.6500000     0.6500000     0.6500000     0.6500000     0.6500000     0.6500000     0.6500000     0.7000000     0.7000000     0.7000000     0.7000000     0.7000000     0.7000000
     0.7000000     0.7000000     0.7000000     0.7000000     0.7000000     0.7000000     0.7000000     0.7000000     0.7000000     0.7000000     0.7000000     0.7000000     0.7000000     0.7000000     0.7000000     0.7500000     0.7500000     0.7500000     0.7500000     0.7500000     0.7500000     0.7500000     0.7500000     0.7500000     0.7500000     0.7500000     0.7500000     0.7500000     0.7500000     0.7500000     0.7500000     0.7500000     0.7500000     0.7500000     0.7500000     0.7500000     0.8000000     0.8000000     0.8000000     0.8000000     0.8000000     0.8000000     0.8000000     0.8000000     0.8000000     0.8000000     0.8000000     0.8000000     0.8000000     0.8000000     0.8000000     0.8000000     0.8000000     0.8000000     0.8000000     0.8000000     0.8000000     0.8500000     0.8500000     0.8500000     0.8500000     0.8500000     0.8500000     0.8500000     0.8500000     0.8500000     0.8500000     0.8500000     0.8500000     0.8500000     0.8500000     0.8500000     0.8500000     0.8500000     0.8500000     0.8500000     0.8500000     0.8500000     0.9000000     0.9000000     0.9000000     0.9000000     0.9000000     0.9000000     0.9000000     0.9000000     0.9000000     0.9000000     0.9000000     0.9000000     0.9000000     0.9000000     0.9000000     0.9000000     0.9000000     0.9000000     0.9000000     0.9000000     0.9000000     0.9500000
     0.9500000     0.9500000     0.9500000     0.9500000     0.9500000     0.9500000     0.9500000     0.9500000     0.9500000     0.9500000     0.9500000     0.9500000     0.9500000     0.9500000     0.9500000     0.9500000     0.9500000     0.9500000     0.9500000     0.9500000     1.0000000     1.0000000     1.0000000     1.0000000     1.0000000     1.0000000     1.0000000     1.0000000     1.0000000     1.0000000     1.0000000     1.0000000     1.0000000     1.0000000     1.0000000     1.0000000     1.0000000     1.0000000     1.0000000     1.0000000     1.0000000
     0.0012508     0.0062820     0.0164945     0.0321883     0.0538133     0.0819695     0.1174070     0.1610258     0.2138758     0.2771571     0.3522196     0.4405634     0.5438383     0.6638444     0.8025323     0.9620008     1.1445010     1.3524324     1.5883451     1.8549385     0.0062820     0.0113133     0.0215258     0.0372195     0.0588445     0.0870008     0.1224383     0.1660571     0.2189070     0.2821883     0.3572509     0.4455946     0.5488695     0.6688756     0.8075635     0.9670321     1.1495322     1.3574636     1.5933762     1.8599697     0.0164945     0.0215258     0.0317383     0.0474320     0.0690570     0.0972133     0.1326508     0.1762695     0.2291195     0.2924008     0.3674634     0.4558071     0.5590820     0.6790884     0.8177758     0.9772445     1.1597447     1.3676758     1.6035883     1.8701823     0.0321883     0.0372195     0.0474320     0.0631258     0.0847508     0.1129070     0.1483445     0.1919633     0.2448133     0.3080945     0.3831570     0.4715009     0.5747758     0.6947819     0.8334694     0.9929383     1.1754384     1.3833694     1.6192818     1.8858759     0.0538133     0.0588445     0.0690570     0.0847508     0.1063758     0.1345320     0.1699695     0.2135883     0.2664383     0.3297195     0.4047820     0.4931259     0.5964008     0.7164069     0.8550944     1.0145633     1.1970634     1.4049945     1.6409068     1.9075010
     0.0819695     0.0870008     0.0972133     0.1129070     0.1345320     0.1626883     0.1981257     0.2417445     0.2945946     0.3578758     0.4329382     0.5212821     0.6245570     0.7445632     0.8832509     1.0427195     1.2252197     1.4331508     1.6690631     1.9356573     0.1174070     0.1224383     0.1326507     0.1483445     0.1699695     0.1981258     0.2335633     0.2771820     0.3300320     0.3933133     0.4683757     0.5567197     0.6599945     0.7800009     0.9186884     1.0781569     1.2606570     1.4685886     1.7045002     1.9710947     0.1610258     0.1660571     0.1762695     0.1919633     0.2135883     0.2417445     0.2771820     0.3208008     0.3736508     0.4369320     0.5119945     0.6003383     0.7036133     0.8236194     0.9623071     1.1217757     1.3042760     1.5122070     1.7481194     2.0147133     0.2138758     0.2189070     0.2291195     0.2448133     0.2664382     0.2945945     0.3300320     0.3736508     0.4265008     0.4897820     0.5648445     0.6531883     0.7564633     0.8764696     1.0151571     1.1746256     1.3571256     1.5650573     1.8009690     2.0675635     0.2771570     0.2821883     0.2924007     0.3080945     0.3297195     0.3578758     0.3933132     0.4369320     0.4897820     0.5530633     0.6281257     0.7164696     0.8197446     0.9397507     1.0784383     1.2379069     1.4204072     1.6283383     1.8642505     2.1308446
     0.3522196     0.3572509     0.3674632     0.3831570     0.4047820     0.4329382     0.4683757     0.5119945     0.5648445     0.6281257     0.7031882     0.7915320     0.8948070     1.0148131     1.1535008     1.3129694     1.4954697     1.7034007     1.9393129     2.2059071     0.4405634     0.4455946     0.4558070     0.4715009     0.4931259     0.5212821     0.5567195     0.6003383     0.6531883     0.7164696     0.7915320     0.8798760     0.9831508     1.1031570     1.2418447     1.4013133     1.5838135     1.7917447     2.0276570     2.2942510     0.5438383     0.5488696     0.5590819     0.5747758     0.5964007     0.6245570     0.6599944     0.7036133     0.7564632     0.8197446     0.8948070     0.9831508     1.0864258     1.2064319     1.3451197     1.5045882     1.6870885     1.8950195     2.1309323     2.3975258     0.6638444     0.6688757     0.6790882     0.6947819     0.7164069     0.7445632     0.7800004     0.8236194     0.8764693     0.9397506     1.0148131     1.1031570     1.2064319     1.3264381     1.4651258     1.6245944     1.8070946     2.0150256     2.2509379     2.5175321     0.8025319     0.8075632     0.8177756     0.8334694     0.8550943     0.8832509     0.9186881     0.9623071     1.0151570     1.0784384     1.1535008     1.2418447     1.3451196     1.4651257     1.6038134     1.7632821     1.9457823     2.1537135     2.3896255     2.6562200
     0.9620008     0.9670321     0.9772443     0.9929379     1.0145630     1.0427196     1.0781569     1.1217757     1.1746259     1.2379071     1.3129694     1.4013133     1.5045882     1.6245943     1.7632821     1.9227507     2.1052508     2.3131819     2.5490942     2.8156886     1.1445013     1.1495326     1.1597445     1.1754384     1.1970634     1.2252197     1.2606575     1.3042760     1.3571264     1.4204073     1.4954697     1.5838135     1.6870885     1.8070946     1.9457822     2.1052508     2.2877512     2.4956822     2.7315946     2.9981885     1.3524324     1.3574636     1.3676755     1.3833698     1.4049948     1.4331510     1.4685886     1.5122073     1.5650573     1.6283386     1.7034011     1.7917449     1.8950195     2.0150261     2.1537137     2.3131824     2.4956825     2.7036133     2.9395266     3.2061200     1.5883447     1.5933759     1.6035877     1.6192821     1.6409070     1.6690631     1.7045007     1.7481194     1.8009697     1.8642507     1.9393129     2.0276570     2.1309319     2.2509379     2.3896255     2.5490942     2.7315946     2.9395256     3.1754377     3.4420319     1.8549385     1.8599697     1.8701816     1.8858759     1.9075009     1.9356573     1.9710946     2.0147135     2.0675635     2.1308448     2.2059071     2.2942510     2.3975258     2.5175323     2.6562197     2.8156886     2.9981885     3.2061195     3.4420321     3.7086263
     0.0628203     0.1524375     0.2590626     0.3731875     0.4978126     0.6359373     0.7905633     0.9646873     1.1613119     1.3834380     1.6340617     1.9161875     2.2328122     2.5869348     2.9815652     3.4196875     3.9043133     4.4384432     5.0250578     5.5796785     0.0628203     0.1524375     0.2590625     0.3731874     0.4978127     0.6359373     0.7905631     0.9646877     1.1613111     1.3834380     1.6340638     1.9161860     2.2328115     2.5869348     2.9815652     3.4196875     3.9043133     4.4384403     5.0250607     5.5796819     0.0628203     0.1524374     0.2590626     0.3731875     0.4978124     0.6359372     0.7905627     0.9646880     1.1613119     1.3834382     1.6340615     1.9161873     2.2328136     2.5869384     2.9815619     3.4196856     3.9043145     4.4384398     5.0250602     5.5796781     0.0628204     0.1524373     0.2590625     0.3731872     0.4978130     0.6359372     0.7905617     0.9646880     1.1613128     1.3834378     1.6340625     1.9161876     2.2328138     2.5869350     2.9815624     3.4196863     3.9043138     4.4384375     5.0250611     5.5796795     0.0628202     0.1524378     0.2590624     0.3731872     0.4978127     0.6359375     0.7905624     0.9646876     1.1613120     1.3834378     1.6340625     1.9161876     2.2328131     2.5869365     2.9815609     3.4196892     3.9043121     4.4384375     5.0250640     5.5796795
     0.0628203     0.1524372     0.2590626     0.3731878     0.4978123     0.6359377     0.7905629     0.9646859     1.1613135     1.3834366     1.6340636     1.9161872     2.2328124     2.5869389     2.9815617     3.4196868     3.9043126     4.4384360     5.0250659     5.5796776     0.0628203     0.1524369     0.2590635     0.3731869     0.4978126     0.6359377     0.7905623     0.9646875     1.1613131     1.3834374     1.6340630     1.9161867     2.2328131     2.5869389     2.9815617     3.4196873     3.9043088     4.4384389     5.0250597     5.5796866     0.0628210     0.1524370     0.2590629     0.3731872     0.4978123     0.6359373     0.7905637     0.9646862     1.1613132     1.3834374     1.6340621     1.9161872     2.2328138     2.5869389     2.9815617     3.4196882     3.9043112     4.4384389     5.0250597     5.5796809     0.0628196     0.1524382     0.2590623     0.3731874     0.4978133     0.6359366     0.7905623     0.9646879     1.1613123     1.3834367     1.6340646     1.9161867     2.2328124     2.5869389     2.9815588     3.4196873     3.9043102     4.4384418     5.0250564     5.5796866     0.0628203     0.1524381     0.2590611     0.3731872     0.4978134     0.6359373     0.7905641     0.9646866     1.1613117     1.3834358     1.6340650     1.9161886     2.2328124     2.5869358     2.9815617     3.4196913     3.9043081     4.4384389     5.0250626     5.5796809
     0.0628218     0.1524351     0.2590633     0.3731876     0.4978127     0.6359373     0.7905633     0.9646859     1.1613132     1.3834381     1.6340621     1.9161872     2.2328124     2.5869389     2.9815631     3.4196899     3.9043112     4.4384332     5.0250626     5.5796809     0.0628210     0.1524388     0.2590618     0.3731861     0.4978127     0.6359395     0.7905604     0.9646881     1.1613132     1.3834351     1.6340621     1.9161901     2.2328124     2.5869372     2.9815631     3.4196868     3.9043171     4.4384360     5.0250597     5.5796809     0.0628196     0.1524405     0.2590606     0.3731858     0.4978133     0.6359373     0.7905613     0.9646899     1.1613116     1.3834381     1.6340624     1.9161863     2.2328136     2.5869372     2.9815633     3.4196846     3.9043126     4.4384446     5.0250506     5.5796838     0.0628218     0.1524403     0.2590551     0.3731861     0.4978164     0.6359366     0.7905663     0.9646873     1.1613102     1.3834395     1.6340591     1.9161886     2.2328124     2.5869417     2.9815571     3.4196899     3.9043112     4.4384389     5.0250597     5.5796747     0.0628203     0.1524373     0.2590596     0.3731876     0.4978119     0.6359366     0.7905648     0.9646859     1.1613132     1.3834381     1.6340606     1.9161886     2.2328153     2.5869358     2.9815600     3.4196899     3.9043171     4.4384360     5.0250568     5.5796838
     0.0628233     0.1524344     0.2590596     0.3731891     0.4978134     0.6359380     0.7905633     0.9646859     1.1613132     1.3834366     1.6340666     1.9161842     2.2328124     2.5869448     2.9815571     3.4196928     3.9043052     4.4384360     5.0250716     5.5796776     0.0628203     0.1524433     0.2590581     0.3731891     0.4978090     0.6359440     0.7905544     0.9646888     1.1613191     1.3834262     1.6340666     1.9161901     2.2328124     2.5869358     2.9815600     3.4196899     3.9043140     4.4384360     5.0250688     5.5796776     0.0628204     0.1524420     0.2590658     0.3731821     0.4978066     0.6359403     0.7905673     0.9646839     1.1613146     1.3834337     1.6340654     1.9161893     2.2328150     2.5869358     2.9815605     3.4196906     3.9043067     4.4384503     5.0250564     5.5796719     0.0628173     0.1524448     0.2590626     0.3731757     0.4978179     0.6359306     0.7905663     0.9646859     1.1613132     1.3834471     1.6340547     1.9161901     2.2328124     2.5869358     2.9815631     3.4196899     3.9043112     4.4384332     5.0250688     5.5796776     0.0628203     0.1524359     0.2590566     0.3731936     0.4978119     0.6359395     0.7905604     0.9646859     1.1613132     1.3834381     1.6340547     1.9161931     2.2328153     2.5869298     2.9815719     3.4196899     3.9043052     4.4384451     5.0250626     5.5796719
     0.0628203     0.0628203     0.0628203     0.0628203     0.0628203     0.0628203     0.0628207     0.0628210     0.0628200     0.0628203     0.0628218     0.0628210     0.0628196     0.0628203     0.0628218     0.0628233     0.0628143     0.0628204     0.0628173     0.0628203     0.1524375     0.1524375     0.1524376     0.1524377     0.1524377     0.1524372     0.1524367     0.1524366     0.1524374     0.1524370     0.1524373     0.1524366     0.1524375     0.1524359     0.1524344     0.1524329     0.1524373     0.1524450     0.1524329     0.1524359     0.2590625     0.2590625     0.2590625     0.2590622     0.2590624     0.2590626     0.2590622     0.2590633     0.2590635     0.2590626     0.2590626     0.2590626     0.2590636     0.2590611     0.2590626     0.2590611     0.2590730     0.2590629     0.2590626     0.2590626     0.3731874     0.3731875     0.3731875     0.3731875     0.3731873     0.3731878     0.3731880     0.3731872     0.3731867     0.3731869     0.3731861     0.3731876     0.3731880     0.3731861     0.3731876     0.3731861     0.3731861     0.3731821     0.3731995     0.3731876     0.4978127     0.4978124     0.4978126     0.4978127     0.4978124     0.4978123     0.4978122     0.4978123     0.4978133     0.4978134     0.4978127     0.4978127     0.4978110     0.4978164     0.4978105     0.4978164     0.4978090     0.4978125     0.4978030     0.4978119
     0.6359376     0.6359375     0.6359376     0.6359373     0.6359373     0.6359377     0.6359380     0.6359373     0.6359366     0.6359373     0.6359373     0.6359373     0.6359373     0.6359395     0.6359410     0.6359351     0.6359366     0.6359343     0.6359336     0.6359395     0.7905623     0.7905625     0.7905625     0.7905620     0.7905622     0.7905619     0.7905619     0.7905619     0.7905638     0.7905619     0.7905626     0.7905626     0.7905628     0.7905633     0.7905604     0.7905633     0.7905619     0.7905673     0.7905663     0.7905604     0.9646879     0.9646879     0.9646880     0.9646887     0.9646880     0.9646888     0.9646879     0.9646888     0.9646871     0.9646888     0.9646888     0.9646881     0.9646884     0.9646888     0.9646903     0.9646888     0.9646888     0.9646869     0.9646918     0.9646859     1.1613119     1.1613115     1.1613115     1.1613116     1.1613128     1.1613117     1.1613131     1.1613125     1.1613109     1.1613109     1.1613109     1.1613132     1.1613116     1.1613117     1.1613088     1.1613117     1.1613102     1.1613116     1.1613072     1.1613132     1.3834373     1.3834380     1.3834375     1.3834378     1.3834370     1.3834366     1.3834374     1.3834374     1.3834374     1.3834374     1.3834366     1.3834366     1.3834381     1.3834395     1.3834381     1.3834381     1.3834351     1.3834337     1.3834471     1.3834381
     1.6340624     1.6340638     1.6340623     1.6340625     1.6340625     1.6340636     1.6340607     1.6340621     1.6340646     1.6340643     1.6340636     1.6340606     1.6340624     1.6340561     1.6340606     1.6340666     1.6340666     1.6340624     1.6340547     1.6340547     1.9161875     1.9161868     1.9161873     1.9161876     1.9161876     1.9161872     1.9161890     1.9161872     1.9161867     1.9161886     1.9161872     1.9161901     1.9161863     1.9161886     1.9161916     1.9161842     1.9161901     1.9161893     1.9161901     1.9161931     2.2328122     2.2328115     2.2328129     2.2328110     2.2328131     2.2328124     2.2328131     2.2328138     2.2328124     2.2328110     2.2328124     2.2328124     2.2328136     2.2328124     2.2328124     2.2328124     2.2328124     2.2328122     2.2328124     2.2328153     2.5869377     2.5869386     2.5869374     2.5869379     2.5869365     2.5869389     2.5869358     2.5869389     2.5869389     2.5869372     2.5869389     2.5869372     2.5869343     2.5869389     2.5869358     2.5869448     2.5869389     2.5869358     2.5869358     2.5869298     2.9815621     2.9815607     2.9815633     2.9815609     2.9815609     2.9815617     2.9815617     2.9815617     2.9815617     2.9815645     2.9815631     2.9815631     2.9815664     2.9815600     2.9815600     2.9815571     2.9815571     2.9815664     2.9815631     2.9815719
     3.4196904     3.4196904     3.4196856     3.4196923     3.4196937     3.4196899     3.4196947     3.4196882     3.4196932     3.4196882     3.4196899     3.4196868     3.4196846     3.4196899     3.4196899     3.4196928     3.4196899     3.4196846     3.4196899     3.4196899     3.9043119     3.9043164     3.9043145     3.9043121     3.9043078     3.9043095     3.9043102     3.9043140     3.9043074     3.9043140     3.9043112     3.9043112     3.9043126     3.9043140     3.9043112     3.9043052     3.9043140     3.9043126     3.9043112     3.9043052     4.4384389     4.4384341     4.4384370     4.4384346     4.4384375     4.4384332     4.4384332     4.4384270     4.4384360     4.4384303     4.4384303     4.4384389     4.4384384     4.4384303     4.4384389     4.4384270     4.4384303     4.4384384     4.4384212     4.4384451     5.0250607     5.0250607     5.0250630     5.0250611     5.0250611     5.0250688     5.0250626     5.0250716     5.0250683     5.0250688     5.0250659     5.0250626     5.0250626     5.0250716     5.0250597     5.0250807     5.0250745     5.0250626     5.0250807     5.0250568     5.5796785     5.5796757     5.5796781     5.5796852     5.5796852     5.5796776     5.5796781     5.5796776     5.5796747     5.5796776     5.5796838     5.5796809     5.5796781     5.5796690     5.5796838     5.5796776     5.5796776     5.5796781     5.5796776     5.5796776