 VARIABLES = "X","Y","P","GradP_X","GradP_Y","GradP_Error_X","GradP_Error_Y","V_x","V_y", "DivV","DivV_Exact","DivV_Error","LaplP","LaplP_Exact","LaplP_Error","RotV","RotV_Exact","RotV_Error","VFlos_X","VFlos_Y","T","GradT_X","GradT_Y","ResT","TFlos","T_Error"
 ZONE I=          21 ,J=          21 , DATAPACKING=BLOCK, VARLOCATION=([3-30]=CELLCENTERED)
     0.0000000     0.0500000     0.1000000     0.1500000     0.2000000     0.2500000     0.3000000     0.3500000     0.4000000     0.4500000     0.5000000     0.5500000     0.6000000     0.6500000     0.7000000     0.7500000     0.8000000     0.8500000     0.9000000     0.9500000     1.0000000     0.0000000     0.0500000     0.1000000     0.1500000     0.2000000     0.2500000     0.3000000     0.3500000     0.4000000     0.4500000     0.5000000     0.5500000     0.6000000     0.6500000     0.7000000     0.7500000     0.8000000     0.8500000     0.9000000     0.9500000     1.0000000     0.0000000     0.0500000     0.1000000     0.1500000     0.2000000     0.2500000     0.3000000     0.3500000     0.4000000     0.4500000     0.5000000     0.5500000     0.6000000     0.6500000     0.7000000     0.7500000     0.8000000     0.8500000     0.9000000     0.9500000     1.0000000     0.0000000     0.0500000     0.1000000     0.1500000     0.2000000     0.2500000     0.3000000     0.3500000     0.4000000     0.4500000     0.5000000     0.5500000     0.6000000     0.6500000     0.7000000     0.7500000     0.8000000     0.8500000     0.9000000     0.9500000     1.0000000     0.0000000     0.0500000     0.1000000     0.1500000     0.2000000     0.2500000     0.3000000     0.3500000     0.4000000     0.4500000     0.5000000     0.5500000     0.6000000     0.6500000     0.7000000     0.7500000
     0.8000000     0.8500000     0.9000000     0.9500000     1.0000000     0.0000000     0.0500000     0.1000000     0.1500000     0.2000000     0.2500000     0.3000000     0.3500000     0.4000000     0.4500000     0.5000000     0.5500000     0.6000000     0.6500000     0.7000000     0.7500000     0.8000000     0.8500000     0.9000000     0.9500000     1.0000000     0.0000000     0.0500000     0.1000000     0.1500000     0.2000000     0.2500000     0.3000000     0.3500000     0.4000000     0.4500000     0.5000000     0.5500000     0.6000000     0.6500000     0.7000000     0.7500000     0.8000000     0.8500000     0.9000000     0.9500000     1.0000000     0.0000000     0.0500000     0.1000000     0.1500000     0.2000000     0.2500000     0.3000000     0.3500000     0.4000000     0.4500000     0.5000000     0.5500000     0.6000000     0.6500000     0.7000000     0.7500000     0.8000000     0.8500000     0.9000000     0.9500000     1.0000000     0.0000000     0.0500000     0.1000000     0.1500000     0.2000000     0.2500000     0.3000000     0.3500000     0.4000000     0.4500000     0.5000000     0.5500000     0.6000000     0.6500000     0.7000000     0.7500000     0.8000000     0.8500000     0.9000000     0.9500000     1.0000000     0.0000000     0.0500000     0.1000000     0.1500000     0.2000000     0.2500000     0.3000000     0.3500000     0.4000000     0.4500000     0.5000000
     0.5500000     0.6000000     0.6500000     0.7000000     0.7500000     0.8000000     0.8500000     0.9000000     0.9500000     1.0000000     0.0000000     0.0500000     0.1000000     0.1500000     0.2000000     0.2500000     0.3000000     0.3500000     0.4000000     0.4500000     0.5000000     0.5500000     0.6000000     0.6500000     0.7000000     0.7500000     0.8000000     0.8500000     0.9000000     0.9500000     1.0000000     0.0000000     0.0500000     0.1000000     0.1500000     0.2000000     0.2500000     0.3000000     0.3500000     0.4000000     0.4500000     0.5000000     0.5500000     0.6000000     0.6500000     0.7000000     0.7500000     0.8000000     0.8500000     0.9000000     0.9500000     1.0000000     0.0000000     0.0500000     0.1000000     0.1500000     0.2000000     0.2500000     0.3000000     0.3500000     0.4000000     0.4500000     0.5000000     0.5500000     0.6000000     0.6500000     0.7000000     0.7500000     0.8000000     0.8500000     0.9000000     0.9500000     1.0000000     0.0000000     0.0500000     0.1000000     0.1500000     0.2000000     0.2500000     0.3000000     0.3500000     0.4000000     0.4500000     0.5000000     0.5500000     0.6000000     0.6500000     0.7000000     0.7500000     0.8000000     0.8500000     0.9000000     0.9500000     1.0000000     0.0000000     0.0500000     0.1000000     0.1500000     0.2000000     0.2500000
     0.3000000     0.3500000     0.4000000     0.4500000     0.5000000     0.5500000     0.6000000     0.6500000     0.7000000     0.7500000     0.8000000     0.8500000     0.9000000     0.9500000     1.0000000     0.0000000     0.0500000     0.1000000     0.1500000     0.2000000     0.2500000     0.3000000     0.3500000     0.4000000     0.4500000     0.5000000     0.5500000     0.6000000     0.6500000     0.7000000     0.7500000     0.8000000     0.8500000     0.9000000     0.9500000     1.0000000     0.0000000     0.0500000     0.1000000     0.1500000     0.2000000     0.2500000     0.3000000     0.3500000     0.4000000     0.4500000     0.5000000     0.5500000     0.6000000     0.6500000     0.7000000     0.7500000     0.8000000     0.8500000     0.9000000     0.9500000     1.0000000     0.0000000     0.0500000     0.1000000     0.1500000     0.2000000     0.2500000     0.3000000     0.3500000     0.4000000     0.4500000     0.5000000     0.5500000     0.6000000     0.6500000     0.7000000     0.7500000     0.8000000     0.8500000     0.9000000     0.9500000     1.0000000     0.0000000     0.0500000     0.1000000     0.1500000     0.2000000     0.2500000     0.3000000     0.3500000     0.4000000     0.4500000     0.5000000     0.5500000     0.6000000     0.6500000     0.7000000     0.7500000     0.8000000     0.8500000     0.9000000     0.9500000     1.0000000     0.0000000
     0.0500000     0.1000000     0.1500000     0.2000000     0.2500000     0.3000000     0.3500000     0.4000000     0.4500000     0.5000000     0.5500000     0.6000000     0.6500000     0.7000000     0.7500000     0.8000000     0.8500000     0.9000000     0.9500000     1.0000000     0.0000000     0.0500000     0.1000000     0.1500000     0.2000000     0.2500000     0.3000000     0.3500000     0.4000000     0.4500000     0.5000000     0.5500000     0.6000000     0.6500000     0.7000000     0.7500000     0.8000000     0.8500000     0.9000000     0.9500000     1.0000000
     0.0000000     0.0000000     0.0000000     0.0000000     0.0000000     0.0000000     0.0000000     0.0000000     0.0000000     0.0000000     0.0000000     0.0000000     0.0000000     0.0000000     0.0000000     0.0000000     0.0000000     0.0000000     0.0000000     0.0000000     0.0000000     0.0500000     0.0500000     0.0500000     0.0500000     0.0500000     0.0500000     0.0500000     0.0500000     0.0500000     0.0500000     0.0500000     0.0500000     0.0500000     0.0500000     0.0500000     0.0500000     0.0500000     0.0500000     0.0500000     0.0500000     0.0500000     0.1000000     0.1000000     0.1000000     0.1000000     0.1000000     0.1000000     0.1000000     0.1000000     0.1000000     0.1000000     0.1000000     0.1000000     0.1000000     0.1000000     0.1000000     0.1000000     0.1000000     0.1000000     0.1000000     0.1000000     0.1000000     0.1500000     0.1500000     0.1500000     0.1500000     0.1500000     0.1500000     0.1500000     0.1500000     0.1500000     0.1500000     0.1500000     0.1500000     0.1500000     0.1500000     0.1500000     0.1500000     0.1500000     0.1500000     0.1500000     0.1500000     0.1500000     0.2000000     0.2000000     0.2000000     0.2000000     0.2000000     0.2000000     0.2000000     0.2000000     0.2000000     0.2000000     0.2000000     0.2000000     0.2000000     0.2000000     0.2000000     0.2000000
     0.2000000     0.2000000     0.2000000     0.2000000     0.2000000     0.2500000     0.2500000     0.2500000     0.2500000     0.2500000     0.2500000     0.2500000     0.2500000     0.2500000     0.2500000     0.2500000     0.2500000     0.2500000     0.2500000     0.2500000     0.2500000     0.2500000     0.2500000     0.2500000     0.2500000     0.2500000     0.3000000     0.3000000     0.3000000     0.3000000     0.3000000     0.3000000     0.3000000     0.3000000     0.3000000     0.3000000     0.3000000     0.3000000     0.3000000     0.3000000     0.3000000     0.3000000     0.3000000     0.3000000     0.3000000     0.3000000     0.3000000     0.3500000     0.3500000     0.3500000     0.3500000     0.3500000     0.3500000     0.3500000     0.3500000     0.3500000     0.3500000     0.3500000     0.3500000     0.3500000     0.3500000     0.3500000     0.3500000     0.3500000     0.3500000     0.3500000     0.3500000     0.3500000     0.4000000     0.4000000     0.4000000     0.4000000     0.4000000     0.4000000     0.4000000     0.4000000     0.4000000     0.4000000     0.4000000     0.4000000     0.4000000     0.4000000     0.4000000     0.4000000     0.4000000     0.4000000     0.4000000     0.4000000     0.4000000     0.4500000     0.4500000     0.4500000     0.4500000     0.4500000     0.4500000     0.4500000     0.4500000     0.4500000     0.4500000     0.4500000
     0.4500000     0.4500000     0.4500000     0.4500000     0.4500000     0.4500000     0.4500000     0.4500000     0.4500000     0.4500000     0.5000000     0.5000000     0.5000000     0.5000000     0.5000000     0.5000000     0.5000000     0.5000000     0.5000000     0.5000000     0.5000000     0.5000000     0.5000000     0.5000000     0.5000000     0.5000000     0.5000000     0.5000000     0.5000000     0.5000000     0.5000000     0.5500000     0.5500000     0.5500000     0.5500000     0.5500000     0.5500000     0.5500000     0.5500000     0.5500000     0.5500000     0.5500000     0.5500000     0.5500000     0.5500000     0.5500000     0.5500000     0.5500000     0.5500000     0.5500000     0.5500000     0.5500000     0.6000000     0.6000000     0.6000000     0.6000000     0.6000000     0.6000000     0.6000000     0.6000000     0.6000000     0.6000000     0.6000000     0.6000000     0.6000000     0.6000000     0.6000000     0.6000000     0.6000000     0.6000000     0.6000000     0.6000000     0.6000000     0.6500000     0.6500000     0.6500000     0.6500000     0.6500000     0.6500000     0.6500000     0.6500000     0.6500000     0.6500000     0.6500000     0.6500000     0.6500000     0.6500000     0.6500000     0.6500000     0.6500000     0.6500000     0.6500000     0.6500000     0.6500000     0.7000000     0.7000000     0.7000000     0.7000000     0.7000000     0.7000000
     0.7000000     0.7000000     0.7000000     0.7000000     0.7000000     0.7000000     0.7000000     0.7000000     0.7000000     0.7000000     0.7000000     0.7000000     0.7000000     0.7000000     0.7000000     0.7500000     0.7500000     0.7500000     0.7500000     0.7500000     0.7500000     0.7500000     0.7500000     0.7500000     0.7500000     0.7500000     0.7500000     0.7500000     0.7500000     0.7500000     0.7500000     0.7500000     0.7500000     0.7500000     0.7500000     0.7500000     0.8000000     0.8000000     0.8000000     0.8000000     0.8000000     0.8000000     0.8000000     0.8000000     0.8000000     0.8000000     0.8000000     0.8000000     0.8000000     0.8000000     0.8000000     0.8000000     0.8000000     0.8000000     0.8000000     0.8000000     0.8000000     0.8500000     0.8500000     0.8500000     0.8500000     0.8500000     0.8500000     0.8500000     0.8500000     0.8500000     0.8500000     0.8500000     0.8500000     0.8500000     0.8500000     0.8500000     0.8500000     0.8500000     0.8500000     0.8500000     0.8500000     0.8500000     0.9000000     0.9000000     0.9000000     0.9000000     0.9000000     0.9000000     0.9000000     0.9000000     0.9000000     0.9000000     0.9000000     0.9000000     0.9000000     0.9000000     0.9000000     0.9000000     0.9000000     0.9000000     0.9000000     0.9000000     0.9000000     0.9500000
     0.9500000     0.9500000     0.9500000     0.9500000     0.9500000     0.9500000     0.9500000     0.9500000     0.9500000     0.9500000     0.9500000     0.9500000     0.9500000     0.9500000     0.9500000     0.9500000     0.9500000     0.9500000     0.9500000     0.9500000     1.0000000     1.0000000     1.0000000     1.0000000     1.0000000     1.0000000     1.0000000     1.0000000     1.0000000     1.0000000     1.0000000     1.0000000     1.0000000     1.0000000     1.0000000     1.0000000     1.0000000     1.0000000     1.0000000     1.0000000     1.0000000
     0.1250313     0.2254375     0.3269687     0.4303750     0.5364062     0.6458125     0.7593437     0.8777500     1.0017813     1.1321876     1.2697189     1.4151251     1.5691563     1.7325624     1.9060941     2.0905001     2.2865314     2.4949379     2.7164690     2.9518752     0.2754375     0.3758438     0.4773750     0.5807812     0.6868124     0.7962188     0.9097500     1.0281563     1.1521876     1.2825938     1.4201251     1.5655314     1.7195625     1.8829687     2.0565002     2.2409062     2.4369376     2.6453440     2.8668752     3.1022813     0.4269688     0.5273751     0.6289062     0.7323126     0.8383437     0.9477500     1.0612812     1.1796875     1.3037188     1.4341249     1.5716563     1.7170626     1.8710938     2.0345001     2.2080314     2.3924375     2.5884690     2.7968750     3.0184064     3.2538126     0.5803751     0.6807813     0.7823125     0.8857188     0.9917500     1.1011562     1.2146876     1.3330936     1.4571251     1.5875312     1.7250624     1.8704689     2.0244999     2.1879063     2.3614373     2.5458441     2.7418752     2.9502811     3.1718121     3.4072189     0.7364063     0.8368126     0.9383437     1.0417501     1.1477813     1.2571875     1.3707187     1.4891249     1.6131562     1.7435625     1.8810936     2.0265002     2.1805313     2.3439374     2.5174685     2.7018750     2.8979065     3.1063125     3.3278434     3.5632501
     0.8958126     0.9962188     1.0977499     1.2011563     1.3071876     1.4165938     1.5301249     1.6485313     1.7725626     1.9029688     2.0404999     2.1859064     2.3399377     2.5033436     2.6768751     2.8612812     3.0573127     3.2657187     3.4872499     3.7226565     1.0593438     1.1597500     1.2612811     1.3646874     1.4707186     1.5801251     1.6936562     1.8120625     1.9360938     2.0665002     2.2040312     2.3494377     2.5034688     2.6668751     2.8404064     3.0248122     3.2208438     3.4292502     3.6507807     3.8861876     1.2277502     1.3281564     1.4296874     1.5330936     1.6391249     1.7485313     1.8620625     1.9804688     2.1045001     2.2349062     2.3724375     2.5178437     2.6718750     2.8352811     3.0088127     3.1932187     3.3892503     3.5976562     3.8191872     4.0545940     1.4017813     1.5021876     1.6037185     1.7071249     1.8131561     1.9225625     2.0360937     2.1545000     2.2785313     2.4089375     2.5464687     2.6918750     2.8459063     3.0093126     3.1828437     3.3672500     3.5632811     3.7716880     3.9932184     4.2286253     1.5821874     1.6825937     1.7841249     1.8875312     1.9935625     2.1029687     2.2164998     2.3349061     2.4589376     2.5893435     2.7268748     2.8722813     3.0263126     3.1897185     3.3632500     3.5476561     3.7436876     3.9520941     4.1736250     4.4090309
     1.7697189     1.8701251     1.9716561     2.0750623     2.1810937     2.2904999     2.4040310     2.5224373     2.6464686     2.7768750     2.9144061     3.0598125     3.2138438     3.3772497     3.5507812     3.7351875     3.9312186     4.1396251     4.3611560     4.5965624     1.9651252     2.0655315     2.1670623     2.2704690     2.3765001     2.4859066     2.5994372     2.7178440     2.8418751     2.9722815     3.1098127     3.2552190     3.4092503     3.5726562     3.7461879     3.9305937     4.1266251     4.3350315     4.5565624     4.7919693     2.1691563     2.2695625     2.3710935     2.4744999     2.5805311     2.6899376     2.8034685     2.9218750     3.0459061     3.1763124     3.3138437     3.4592502     3.6132812     3.7766874     3.9502189     4.1346250     4.3306565     4.5390625     4.7605944     4.9960003     2.3825624     2.4829686     2.5844998     2.6879060     2.7939372     2.9033437     3.0168743     3.1352811     3.2593122     3.3897185     3.5272498     3.6726561     3.8266873     3.9900935     4.1636248     4.3480310     4.5440626     4.7524686     4.9740000     5.2094059     2.6060936     2.7065001     2.8080311     2.9114375     3.0174687     3.1268754     3.2404060     3.3588128     3.4828439     3.6132503     3.7507815     3.8961878     4.0502191     4.2136250     4.3871565     4.5715628     4.7675943     4.9760003     5.1975312     5.4329376
     2.8405001     2.9409065     3.0424371     3.1458435     3.2518747     3.3612809     3.4748120     3.5932186     3.7172499     3.8476560     3.9851873     4.1305938     4.2846251     4.4480309     4.6215625     4.8059683     5.0019999     5.2104063     5.4319372     5.6673436     3.0865319     3.1869383     3.2884686     3.3918753     3.4979064     3.6073127     3.7208443     3.8392503     3.9632821     4.0936880     4.2312188     4.3766255     4.5306568     4.6940622     4.8675938     5.0520000     5.2480316     5.4564381     5.6779690     5.9133754     3.3449378     3.4453442     3.5468745     3.6502817     3.7563128     3.8657191     3.9792504     4.0976567     4.2216878     4.3520942     4.4896255     4.6350317     4.7890625     4.9524689     5.1260004     5.3104067     5.5064383     5.7148438     5.9363756     6.1717815     3.6164689     3.7168751     3.8184056     3.9218125     4.0278440     4.1372499     4.2507811     4.3691874     4.4932189     4.6236248     4.7611561     4.9065623     5.0605936     5.2240000     5.3975310     5.5819368     5.7779684     5.9863749     6.2079058     6.4433126     3.9018753     4.0022817     4.1038122     4.2072191     4.3132505     4.4226565     4.5361876     4.6545939     4.7786255     4.9090314     5.0465627     5.1919689     5.3460002     5.5094061     5.6829376     5.8673439     6.0633755     6.2717814     6.4933128     6.7287192
     2.0043747     2.0193744     2.0493755     2.0943754     2.1543741     2.2293749     2.3193738     2.4243765     2.5443771     2.6793725     2.8293750     2.9943757     3.1743796     3.3693693     3.5793743     3.8043756     4.0443797     4.2993736     4.5693746     4.8543739     2.0043755     2.0193746     2.0493743     2.0943754     2.1543741     2.2293770     2.3193724     2.4243765     2.5443754     2.6793756     2.8293722     2.9943786     3.1743765     3.3693693     3.5793772     3.8043728     4.0443740     4.2993765     4.5693746     4.8543739     2.0043774     2.0193739     2.0493751     2.0943758     2.1543739     2.2293739     2.3193753     2.4243748     2.5443754     2.6793709     2.8293808     2.9943724     3.1743762     3.3693750     3.5793769     3.8043723     4.0443826     4.2993760     4.5693741     4.8543673     2.0043755     2.0193727     2.0493774     2.0943735     2.1543744     2.2293758     2.3193755     2.4243708     2.5443773     2.6793745     2.8293755     2.9943759     3.1743767     3.3693726     3.5793777     3.8043702     4.0443711     4.2993770     4.5693808     4.8543744     2.0043745     2.0193727     2.0493774     2.0943749     2.1543744     2.2293758     2.3193755     2.4243708     2.5443773     2.6793745     2.8293784     2.9943759     3.1743739     3.3693755     3.5793717     3.8043730     4.0443773     4.2993770     4.5693746     4.8543744
     2.0043755     2.0193751     2.0493739     2.0943773     2.1543739     2.2293737     2.3193750     2.4243760     2.5443735     2.6793737     2.8293805     2.9943721     3.1743755     3.3693745     3.5793765     3.8043721     4.0443759     4.2993755     4.5693793     4.8543730     2.0043752     2.0193746     2.0493753     2.0943739     2.1543751     2.2293780     2.3193703     2.4243746     2.5443809     2.6793752     2.8293703     2.9943738     3.1743777     3.3693736     3.5793726     3.8043802     4.0443721     4.2993779     4.5693760     4.8543639     2.0043771     2.0193751     2.0493679     2.0943758     2.1543767     2.2293797     2.3193719     2.4243731     2.5443766     2.6793766     2.8293746     2.9943721     3.1743786     3.3693717     3.5793765     3.8043780     4.0443759     4.2993693     4.5693793     4.8543730     2.0043797     2.0193703     2.0493693     2.0943828     2.1543720     2.2293780     2.3193734     2.4243746     2.5443749     2.6793752     2.8293731     2.9943767     3.1743748     3.3693736     3.5793786     3.8043683     4.0443840     4.2993779     4.5693760     4.8543639     2.0043786     2.0193720     2.0493739     2.0943758     2.1543739     2.2293766     2.3193750     2.4243760     2.5443735     2.6793766     2.8293777     2.9943750     3.1743727     3.3693776     3.5793765     3.8043721     4.0443759     4.2993813     4.5693674     4.8543730
     2.0043786     2.0193691     2.0493767     2.0943727     2.1543798     2.2293737     2.3193719     2.4243731     2.5443795     2.6793766     2.8293717     2.9943750     3.1743786     3.3693717     3.5793824     3.8043721     4.0443702     4.2993755     4.5693674     4.8543730     2.0043755     2.0193691     2.0493767     2.0943787     2.1543739     2.2293706     2.3193779     2.4243701     2.5443795     2.6793766     2.8293717     2.9943810     3.1743727     3.3693717     3.5793765     3.8043780     4.0443702     4.2993813     4.5693736     4.8543730     2.0043781     2.0193715     2.0493734     2.0943782     2.1543703     2.2293761     2.3193748     2.4243789     2.5443707     2.6793797     2.8293748     2.9943783     3.1743705     3.3693755     3.5793746     3.8043764     4.0443687     4.2993803     4.5693727     4.8543725     2.0043755     2.0193779     2.0493679     2.0943758     2.1543798     2.2293677     2.3193719     2.4243820     2.5443735     2.6793766     2.8293717     2.9943750     3.1743846     3.3693657     3.5793765     3.8043780     4.0443702     4.2993755     4.5693793     4.8543787     2.0043786     2.0193751     2.0493739     2.0943758     2.1543739     2.2293797     2.3193719     2.4243760     2.5443735     2.6793706     2.8293836     2.9943750     3.1743667     3.3693776     3.5793765     3.8043780     4.0443821     4.2993574     4.5693736     4.8543906
     2.0043845     2.0193632     2.0493739     2.0943699     2.1543739     2.2293797     2.3193779     2.4243701     2.5443795     2.6793766     2.8293717     2.9943869     3.1743727     3.3693657     3.5793824     3.8043661     4.0443759     4.2993813     4.5693617     4.8543906     2.0043905     2.0193691     2.0493679     2.0943818     2.1543679     2.2293856     2.3193719     2.4243760     2.5443854     2.6793647     2.8293717     2.9943810     3.1743667     3.3693717     3.5793824     3.8043840     4.0443759     4.2993574     4.5693736     4.8543906     2.0043809     2.0193715     2.0493703     2.0943782     2.1543822     2.2293761     2.3193748     2.4243729     2.5443707     2.6793797     2.8293688     2.9943724     3.1743765     3.3693814     3.5793686     3.8043883     4.0443687     4.2993627     4.5693784     4.8543725     2.0043845     2.0193572     2.0493739     2.0943937     2.1543739     2.2293677     2.3193779     2.4243701     2.5443735     2.6793766     2.8293836     2.9943631     3.1743786     3.3693776     3.5793645     3.8043721     4.0443878     4.2993693     4.5693855     4.8543668     2.0043786     2.0193751     2.0493679     2.0943937     2.1543679     2.2293677     2.3193719     2.4243760     2.5443854     2.6793647     2.8293657     2.9943810     3.1743786     3.3693776     3.5793765     3.8043840     4.0443640     4.2993813     4.5693736     4.8543787
     3.0043750     3.0043750     3.0043740     3.0043738     3.0043738     3.0043743     3.0043745     3.0043759     3.0043745     3.0043743     3.0043788     3.0043743     3.0043781     3.0043743     3.0043774     3.0043743     3.0043683     3.0043781     3.0043833     3.0043654     3.0193751     3.0193758     3.0193758     3.0193746     3.0193770     3.0193768     3.0193741     3.0193739     3.0193756     3.0193722     3.0193739     3.0193739     3.0193715     3.0193768     3.0193739     3.0193739     3.0193768     3.0193775     3.0193799     3.0193799     3.0493755     3.0493755     3.0493753     3.0493765     3.0493734     3.0493741     3.0493774     3.0493727     3.0493731     3.0493755     3.0493727     3.0493755     3.0493734     3.0493755     3.0493727     3.0493786     3.0493846     3.0493762     3.0493667     3.0493727     3.0943744     3.0943737     3.0943763     3.0943754     3.0943754     3.0943747     3.0943749     3.0943775     3.0943735     3.0943775     3.0943747     3.0943775     3.0943754     3.0943747     3.0943687     3.0943716     3.0943627     3.0943725     3.0943687     3.0943747     3.1543748     3.1543748     3.1543729     3.1543751     3.1543779     3.1543741     3.1543744     3.1543756     3.1543775     3.1543727     3.1543756     3.1543756     3.1543794     3.1543727     3.1543756     3.1543787     3.1543787     3.1543705     3.1543787     3.1543787
     3.2293758     3.2293758     3.2293756     3.2293746     3.2293746     3.2293751     3.2293742     3.2293723     3.2293770     3.2293751     3.2293751     3.2293723     3.2293789     3.2293782     3.2293842     3.2293663     3.2293782     3.2293818     3.2293723     3.2293723     3.3193731     3.3193731     3.3193731     3.3193719     3.3193719     3.3193772     3.3193760     3.3193741     3.3193729     3.3193772     3.3193741     3.3193741     3.3193662     3.3193772     3.3193772     3.3193772     3.3193712     3.3193750     3.3193712     3.3193772     3.4243753     3.4243784     3.4243751     3.4243758     3.4243758     3.4243717     3.4243736     3.4243777     3.4243767     3.4243717     3.4243748     3.4243748     3.4243786     3.4243748     3.4243689     3.4243808     3.4243748     3.4243727     3.4243808     3.4243748     3.5443764     3.5443704     3.5443792     3.5443738     3.5443738     3.5443728     3.5443687     3.5443757     3.5443747     3.5443757     3.5443728     3.5443788     3.5443771     3.5443728     3.5443788     3.5443728     3.5443728     3.5443830     3.5443788     3.5443728     3.6793730     3.6793790     3.6793725     3.6793761     3.6793733     3.6793811     3.6793802     3.6793692     3.6793714     3.6793811     3.6793752     3.6793752     3.6793733     3.6793692     3.6793752     3.6793752     3.6793811     3.6793733     3.6793811     3.6793811
     3.8293738     3.8293710     3.8293705     3.8293743     3.8293772     3.8293762     3.8293724     3.8293850     3.8293784     3.8293703     3.8293762     3.8293703     3.8293746     3.8293762     3.8293703     3.8293822     3.8293703     3.8293746     3.8293643     3.8293703     3.9943774     3.9943774     3.9943740     3.9943779     3.9943688     3.9943767     3.9943819     3.9943738     3.9943759     3.9943738     3.9943798     3.9943798     3.9943781     3.9943738     3.9943798     3.9943619     3.9943738     3.9943662     3.9943857     3.9943798     4.1743765     4.1743736     4.1743793     4.1743708     4.1743798     4.1743722     4.1743693     4.1743722     4.1743813     4.1743784     4.1743784     4.1743722     4.1743717     4.1743841     4.1743722     4.1743841     4.1743841     4.1743774     4.1743784     4.1743665     4.3693771     4.3693771     4.3693705     4.3693771     4.3693771     4.3693819     4.3693728     4.3693819     4.3693728     4.3693700     4.3693700     4.3693762     4.3693752     4.3693643     4.3693643     4.3693762     4.3693762     4.3693752     4.3693581     4.3693881     4.5793700     4.5793819     4.5793757     4.5793762     4.5793824     4.5793691     4.5793777     4.5793691     4.5793657     4.5793810     4.5793753     4.5793810     4.5793743     4.5793810     4.5793929     4.5793691     4.5793691     4.5793743     4.5793872     4.5793633
     4.8043776     4.8043656     4.8043828     4.8043718     4.8043718     4.8043647     4.8043733     4.8043766     4.8043852     4.8043766     4.8043709     4.8043709     4.8043818     4.8043766     4.8043709     4.8043709     4.8043766     4.8043642     4.8043709     4.8043828     5.0443754     5.0443816     5.0443692     5.0443821     5.0443640     5.0443807     5.0443835     5.0443745     5.0443654     5.0443745     5.0443807     5.0443745     5.0443683     5.0443687     5.0443745     5.0443864     5.0443864     5.0443921     5.0443745     5.0443625     5.2993708     5.2993765     5.2993760     5.2993650     5.2993832     5.2993808     5.2993727     5.2993751     5.2993727     5.2993689     5.2993751     5.2993689     5.2993755     5.2993751     5.2993631     5.2993689     5.2993689     5.2993636     5.2993808     5.2993927     5.5693731     5.5693669     5.5693727     5.5693798     5.5693798     5.5693722     5.5693693     5.5693722     5.5693812     5.5693722     5.5693722     5.5693779     5.5693722     5.5693722     5.5693841     5.5693603     5.5693722     5.5693784     5.5693722     5.5693603     5.8543844     5.8543787     5.8543782     5.8543792     5.8543730     5.8543715     5.8543749     5.8543715     5.8543749     5.8543777     5.8543715     5.8543777     5.8543720     5.8543897     5.8543777     5.8543897     5.8543658     5.8543720     5.8543777     5.8543777