 VARIABLES = "X","Y","P","GradP_X","GradP_Y","GradP_Error_X","GradP_Error_Y","V_x","V_y", "DivV","DivV_Exact","DivV_Error","LaplP","LaplP_Exact","LaplP_Error","RotV","RotV_Exact","RotV_Error","VFlos_X","VFlos_Y","T","GradT_X","GradT_Y","ResT","TFlos","T_Error"
 ZONE I=          21 ,J=          21 , DATAPACKING=BLOCK, VARLOCATION=([3-30]=CELLCENTERED)
     0.0000000     0.0174596     0.0366652     0.0577913     0.0810301     0.1065928     0.1347117     0.1656424     0.1996663     0.2370925     0.2782614     0.3235471     0.3733615     0.4281572     0.4884325     0.5547354     0.6276685     0.7078950     0.7961441     0.8932183     1.0000000     0.0000000     0.0192026     0.0400355     0.0626801     0.0873331     0.1142075     0.1435350     0.1755665     0.2105748     0.2488558     0.2907309     0.3365484     0.3866860     0.4415529     0.5015918     0.5672813     0.6391375     0.7177172     0.8036184     0.8974835     1.0000000     0.0000000     0.0211224     0.0437491     0.0680647     0.0942671     0.1225689     0.1531985     0.1864009     0.2224389     0.2615941     0.3041683     0.3504836     0.4008844     0.4557371     0.5154316     0.5803809     0.6510211     0.7278119     0.8112342     0.9017901     1.0000000     0.0000000     0.0232361     0.0478387     0.0739911     0.1018893     0.1317425     0.1637738     0.1982202     0.2353333     0.2753795     0.3186402     0.3654121     0.4160065     0.4707496     0.5299810     0.5940533     0.6633299     0.7381834     0.8189921     0.9061377     1.0000000     0.0000000     0.0255625     0.0523393     0.0805082     0.1102598     0.1417970     0.1753348     0.2111006     0.2493334     0.2902836     0.3342125     0.3813913     0.4321003     0.4866275     0.5452666     0.6083155
     0.6760727     0.7488349     0.8268926     0.9105260     1.0000000     0.0000000     0.0281218     0.0572884     0.0876679     0.1194415     0.1528028     0.1879565     0.2251185     0.2645138     0.3063766     0.3509481     0.3984753     0.4492095     0.5034038     0.5613112     0.6231809     0.6892557     0.7597678     0.8349347     0.9149543     1.0000000     0.0000000     0.0309361     0.0627260     0.0955243     0.1294990     0.1648314     0.2017138     0.2403485     0.2809462     0.3237242     0.3689047     0.4167122     0.4673718     0.5211059     0.5781320     0.6386586     0.7028818     0.7709816     0.8431170     0.9194219     1.0000000     0.0000000     0.0340290     0.0686947     0.1041337     0.1404983     0.1779542     0.2166794     0.2568617     0.2986967     0.3423856     0.3881325     0.4361421     0.4866168     0.5397533     0.5957398     0.6547522     0.7169501     0.7824731     0.8514367     0.9239275     1.0000000     0.0000000     0.0374262     0.0752391     0.1135543     0.1525052     0.1922405     0.2329222     0.2747228     0.3178234     0.3624098     0.4086706     0.4567937     0.5069630     0.5593553     0.6141366     0.6714587     0.7314548     0.7942367     0.8598896     0.9284698     1.0000000     0.0000000     0.0411553     0.0824061     0.1238450     0.1655847     0.2077558     0.2505040     0.2939871     0.3383723     0.3838327     0.4305439
     0.4786812     0.5284153     0.5799091     0.6333142     0.6887670     0.7463848     0.8062630     0.8684703     0.9330468     1.0000000     0.0000000     0.0452456     0.0902442     0.1350646     0.1797988     0.2245596     0.2694773     0.3146969     0.3603742     0.4066727     0.4537592     0.5018011     0.5509617     0.6013970     0.6532519     0.7066565     0.7617222     0.8185390     0.8771715     0.9376563     1.0000000     0.0000000     0.0497287     0.0988036     0.1472711     0.1952048     0.2427021     0.2898813     0.3368777     0.3838401     0.4309267     0.4783009     0.5261279     0.5745701     0.6237837     0.6739149     0.7250959     0.7774419     0.8310475     0.8859838     0.9422957     1.0000000     0.0000000     0.0546379     0.1081350     0.1605201     0.2118532     0.2622221     0.3117387     0.3605344     0.4087572     0.4565661     0.5041276     0.5516112     0.5991855     0.6470141     0.6952521     0.7440419     0.7935106     0.8437664     0.8948959     0.9469615     1.0000000     0.0000000     0.0600088     0.1182895     0.1748630     0.2297851     0.2831431     0.3350515     0.3856470     0.4350846     0.4835327     0.5311680     0.5781723     0.6247273     0.6710111     0.7171946     0.7634376     0.8098858     0.8566682     0.9038939     0.9516500     1.0000000     0.0000000     0.0658784     0.1293177     0.1903457     0.2490296     0.3054702
     0.3597979     0.4121667     0.4627499     0.5117350     0.5593184     0.6057017     0.6510872     0.6956739     0.7396546     0.7832118     0.8265154     0.8697199     0.9129615     0.9563565     1.0000000     0.0000000     0.0722858     0.1412682     0.2070065     0.2696010     0.3291869     0.3859283     0.4400128     0.4916462     0.5410467     0.5884405     0.6340578     0.6781281     0.7208773     0.7625245     0.8032789     0.8433374     0.8828822     0.9220793     0.9610760     1.0000000     0.0000000     0.0792714     0.1541872     0.2248738     0.2914963     0.3542518     0.4133628     0.4690706     0.5216301     0.5713046     0.6183610     0.6630664     0.7056842     0.7464717     0.7856773     0.8235381     0.8602789     0.8961099     0.9312252     0.9658022     1.0000000     0.0000000     0.0868769     0.1681168     0.2439638     0.3146918     0.3805966     0.4419892     0.4991897     0.5525222     0.6023102     0.6488730     0.6925231     0.7335631     0.7722848     0.8089670     0.8438745     0.8772576     0.9093511     0.9403739     0.9705282     1.0000000     0.0000000     0.0951449     0.1830934     0.2642787     0.3391415     0.4081237     0.4716623     0.5301853     0.5841083     0.6338317     0.6797391     0.7221957     0.7615482     0.7981240     0.8322315     0.8641601     0.8941812     0.9225481     0.9494967     0.9752462     1.0000000     0.0000000
     0.1041184     0.1991465     0.2858041     0.3647752     0.4367061     0.5022046     0.5618399     0.6161433     0.6656094     0.7106968     0.7518308     0.7894044     0.8237807     0.8552951     0.8842562     0.9109493     0.9356371     0.9585619     0.9799472     1.0000000     0.0000000     0.1138403     0.2162967     0.3085073     0.3914969     0.4661875     0.5334091     0.5939084     0.6483579     0.6973624     0.7414664     0.7811601     0.8168844     0.8490362     0.8779730     0.9040159     0.9274546     0.9485494     0.9675348     0.9846215     1.0000000
     0.0000000     0.0000000     0.0000000     0.0000000     0.0000000     0.0000000     0.0000000     0.0000000     0.0000000     0.0000000     0.0000000     0.0000000     0.0000000     0.0000000     0.0000000     0.0000000     0.0000000     0.0000000     0.0000000     0.0000000     0.0000000     0.0157137     0.0162760     0.0168862     0.0175493     0.0182713     0.0190584     0.0199173     0.0208554     0.0218806     0.0230017     0.0242281     0.0255699     0.0270383     0.0286451     0.0304035     0.0323272     0.0344317     0.0367330     0.0392487     0.0419977     0.0450000     0.0329987     0.0342027     0.0354924     0.0368785     0.0383720     0.0399853     0.0417312     0.0436238     0.0456780     0.0479099     0.0503367     0.0529767     0.0558496     0.0589763     0.0623790     0.0660812     0.0701078     0.0744850     0.0792401     0.0844020     0.0900000     0.0520122     0.0539405     0.0559823     0.0581526     0.0604678     0.0629452     0.0656035     0.0684621     0.0715420     0.0748654     0.0784555     0.0823370     0.0865357     0.0910787     0.0959942     0.1013114     0.1070605     0.1132724     0.1199786     0.1272106     0.1350000     0.0729270     0.0756641     0.0785312     0.0815473     0.0847329     0.0881097     0.0917007     0.0955302     0.0996239     0.1040086     0.1087122     0.1137638     0.1191933     0.1250317     0.1313104     0.1380612
     0.1453162     0.1531071     0.1614649     0.1704198     0.1800001     0.0959334     0.0995630     0.1033274     0.1072484     0.1113493     0.1156552     0.1201923     0.1249887     0.1300733     0.1354764     0.1412291     0.1473633     0.1539114     0.1609060     0.1683799     0.1763653     0.1848933     0.1939941     0.2036956     0.2140235     0.2250000     0.1212404     0.1258425     0.1305715     0.1354506     0.1405047     0.1457607     0.1512473     0.1569946     0.1630339     0.1693975     0.1761185     0.1832304     0.1907665     0.1987599     0.2072431     0.2162470     0.2258008     0.2359313     0.2466621     0.2580132     0.2700000     0.1490781     0.1547243     0.1604761     0.1663562     0.1723899     0.1786046     0.1850300     0.1916971     0.1986384     0.2058873     0.2134778     0.2214436     0.2298184     0.2386349     0.2479243     0.2577158     0.2680358     0.2789075     0.2903500     0.3023778     0.3149999     0.1796996     0.1864476     0.1932652     0.2001735     0.2071964     0.2143606     0.2216955     0.2292322     0.2370033     0.2450422     0.2533830     0.2620596     0.2711052     0.2805515     0.2904286     0.3007638     0.3115811     0.3229007     0.3347380     0.3471030     0.3599999     0.2133832     0.2212692     0.2291736     0.2371140     0.2451120     0.2531927     0.2613840     0.2697160     0.2782210     0.2869319     0.2958826
     0.3051065     0.3146364     0.3245035     0.3347368     0.3453624     0.3564030     0.3678766     0.3797966     0.3921705     0.4049999     0.2504352     0.2594646     0.2684447     0.2773893     0.2863167     0.2952493     0.3042133     0.3132375     0.3223532     0.3315927     0.3409895     0.3505770     0.3603877     0.3704528     0.3808012     0.3914589     0.4024480     0.4137866     0.4254876     0.4375583     0.4499999     0.2911924     0.3013274     0.3113293     0.3212073     0.3309765     0.3406569     0.3502724     0.3598506     0.3694218     0.3790185     0.3886737     0.3984212     0.4082941     0.4183241     0.4285413     0.4389724     0.4496408     0.4605661     0.4717625     0.4832393     0.4949999     0.3360252     0.3471700     0.3580820     0.3687672     0.3792379     0.3895119     0.3996120     0.4095651     0.4194013     0.4291531     0.4388544     0.4485399     0.4582438     0.4679997     0.4778390     0.4877909     0.4978812     0.5081321     0.5185612     0.5291813     0.5399998     0.3853414     0.3973227     0.4089589     0.4202543     0.4312199     0.4418733     0.4522372     0.4623391     0.4722097     0.4818828     0.4913936     0.5007784     0.5100735     0.5193144     0.5285353     0.5377681     0.5470419     0.5563824     0.5658114     0.5753463     0.5849998     0.4395892     0.4521331     0.4642126     0.4758330     0.4870071     0.4977539
     0.5080985     0.5180700     0.5277017     0.5370289     0.5460893     0.5549212     0.5635630     0.5720528     0.5804272     0.5887210     0.5969664     0.6051930     0.6134266     0.6216895     0.6299997     0.4992618     0.5119652     0.5240880     0.5356407     0.5466409     0.5571124     0.5670840     0.5765887     0.5856627     0.5943442     0.6026731     0.6106898     0.6184346     0.6259472     0.6332663     0.6404284     0.6474681     0.6544177     0.6613061     0.6681593     0.6749997     0.5649016     0.5771964     0.5888157     0.5997791     0.6101121     0.6198453     0.6290134     0.6376535     0.6458054     0.6535098     0.6608081     0.6677419     0.6743518     0.6806779     0.6867586     0.6926307     0.6983292     0.7038864     0.7093328     0.7146956     0.7199996     0.6371053     0.6482164     0.6586065     0.6683069     0.6773526     0.6857815     0.6936333     0.7009488     0.7077698     0.7141374     0.7200925     0.7256751     0.7309239     0.7358761     0.7405676     0.7450321     0.7493016     0.7534062     0.7573738     0.7612303     0.7649996     0.7165294     0.7254226     0.7336432     0.7412316     0.7482290     0.7546768     0.7606158     0.7660859     0.7711261     0.7757738     0.7800647     0.7840331     0.7877114     0.7911301     0.7943182     0.7973025     0.8001086     0.8027601     0.8052790     0.8076858     0.8099995     0.8038961
     0.8092169     0.8140731     0.8185017     0.8225373     0.8262132     0.8295605     0.8326080     0.8353831     0.8379110     0.8402151     0.8423172     0.8442373     0.8459941     0.8476046     0.8490846     0.8504487     0.8517103     0.8528818     0.8539747     0.8549995     0.9000000     0.9000000     0.9000000     0.9000000     0.9000000     0.9000000     0.9000000     0.9000000     0.9000000     0.9000000     0.9000000     0.9000000     0.9000000     0.9000000     0.9000000     0.9000000     0.9000000     0.9000000     0.9000000     0.9000000     0.9000000
     0.0431368     0.0824227     0.1253944     0.1725227     0.2243554     0.2815386     0.3448441     0.4152078     0.4937785     0.5819840     0.6816183     0.7949576     0.9249156     1.0752472     1.2508236     1.4579931     1.7050620     2.0029347     2.3659575     2.8130350     0.0954874     0.1402008     0.1885146     0.2409422     0.2980747     0.3606015     0.4293382     0.5052626     0.5895624     0.6836984     0.7894848     0.9091967     1.0457087     1.2026768     1.3847747     1.5979960     1.8500540     2.1508844     2.5132999     2.9538188     0.1531557     0.2038921     0.2580930     0.3163103     0.3791750     0.4474171     0.5218925     0.6036179     0.6938150     0.7939696     0.9059064     1.0318844     1.1747209     1.3379476     1.5260113     1.7445230     2.0005760     2.3031383     2.6635401     3.0960691     0.2167178     0.2741210     0.3347983     0.3993351     0.4683986     0.5427557     0.6232994     0.7110798     0.8073474     0.9136052     1.0316761     1.1637882     1.3126822     1.4817418     1.6751602     1.8981407     2.1571422     2.4601755     2.8171539     3.2403033     0.2868302     0.3515926     0.4193789     0.4908038     0.5665664     0.6474664     0.7344291     0.8285331     0.9310496     1.0434895     1.1676619     1.3057477     1.4603900     1.6348034     1.8329036     2.0594659     2.3203094     2.6225100     2.9746418     3.3870468
     0.3642463     0.4371078     0.5126780     0.5915968     0.6745905     0.7624883     0.8562408     0.9569495     1.0658967     1.1845902     1.3148115     1.4586772     1.6187129     1.7979407     1.9999804     2.2291653     2.4906769     2.7906902     3.1365309     3.5368385     0.4498384     0.5315844     0.6156516     0.7027030     0.7934890     0.8888620     0.9897934     1.0973969     1.2129574     1.3379654     1.4741578     1.6235693     1.7885885     1.9720242     2.1771834     2.4079509     2.6688817     2.9652958     3.3033690     3.6902235     0.5446273     0.6360833     0.7293935     0.8252431     0.9244046     1.0277483     1.1362586     1.2510521     1.3734019     1.5047657     1.6468196     1.8014950     1.9710230     2.1579826     2.3653548     2.5965748     2.8555949     3.1469314     3.4757221     3.8477526     0.6498201     0.7518444     0.8551657     0.9604957     1.0686274     1.1804448     1.2969358     1.4192078     1.5485063     1.6862385     1.8339989     1.9935952     2.1670814     2.3567910     2.5653718     2.7958188     3.0515075     3.3362222     3.6541696     4.0099859     0.7668595     0.8803291     0.9944368     1.1099288     1.2276208     1.3484060     1.4732654     1.6032817     1.7396557     1.8837228     2.0369725     2.2010684     2.3778703     2.5694532     2.7781312     3.0064740     3.2573223     3.5337973     3.8392954     4.1774797
     0.8974899     1.0232784     1.1489296     1.2752395     1.4030522     1.5332644     1.6668396     1.8048189     1.9483368     2.0986335     2.2570705     2.4251475     2.6045113     2.7969742     3.0045218     3.2293220     3.4737277     3.7402775     4.0316811     4.3507948     1.0438416     1.1827841     1.3206801     1.4583999     1.5968230     1.7368491     1.8794101     2.0254869     2.1761222     2.3324385     2.4956450     2.6670575     2.8480997     3.0403190     3.2453854     3.4650965     3.7013752     3.9562602     4.2318931     4.5304856     1.2085439     1.3613809     1.5121077     1.6617050     1.8111024     1.9611995     2.1128836     2.2670536     2.4246378     2.5866125     2.7540164     2.9279623     3.1096478     3.3003573     3.5014687     3.7144461     3.9408445     4.1822901     4.4404669     4.7170954     1.3948718     1.5621594     1.7260993     1.8878300     2.0483537     2.2085686     2.3693037     2.5313532     2.6955070     2.8625736     3.0334003     3.2088900     3.3900084     3.5777950     3.7733588     3.9778805     4.1926050     4.4188318     4.6578970     4.9111557     1.6069375     1.7889087     1.9661030     2.1398845     2.3113537     2.4814091     2.6508088     2.8202226     2.9902763     3.1615920     3.3348136     3.5106294     3.6897840     3.8730874     4.0614157     4.2557082     4.4569654     4.6662378     4.8846068     5.1131725
     1.8499411     2.0462880     2.2362370     2.4214604     2.6031935     2.7823396     2.9595704     3.1354094     3.3103025     3.4846716     3.6589522     3.8336215     4.0092163     4.1863422     4.3656769     4.5479660     4.7340221     4.9247093     5.1209326     5.3236246     2.1304984     2.3400373     2.5413985     2.7366719     2.9272614     3.1140754     3.2976851     3.4784503     3.6566224     3.8324151     4.0060568     4.1778245     4.3480663     4.5172129     4.6857762     4.8543472     5.0235953     5.1942496     5.3670936     5.5429468     2.4570630     2.6772263     2.8873885     3.0901713     3.2871819     3.4793246     3.6670451     3.8505199     4.0297918     4.2048626     4.3757606     4.5425792     4.7054982     4.8647976     5.0208502     5.1741238     5.3251739     5.4746237     5.6231618     5.7715225     2.8404803     3.0665429     3.2810092     3.4871347     3.6867261     3.8806450     4.0691695     4.2522554     4.4297171     4.6013389     4.7669563     4.9264889     5.0799685     5.2275400     5.3694582     5.5060787     5.6378536     5.7653065     5.8890305     6.0096693     3.2947006     3.5186343     3.7301657     3.9332037     4.1296682     4.3202667     4.5050116     4.6835709     4.8554878     5.0203123     5.1776738     5.3273249     5.4691525     5.6031752     5.7295284     5.8484554     5.9602919     6.0654449     6.1643829     6.2576208
     2.0006146     2.0029113     2.0079694     2.0165448     2.0295806     2.0482323     2.0739210     2.1083999     2.1537936     2.2127161     2.2883401     2.3845444     2.5060074     2.6584480     2.8487492     3.0852962     3.3781526     3.7395015     4.1840410     4.6398692     2.0007148     2.0034420     2.0093691     2.0192604     2.0340741     2.0549726     2.0833998     2.1210866     2.1701493     2.2331560     2.3131952     2.4140022     2.5400474     2.6966884     2.8903589     3.1286786     3.4207344     3.7773209     4.2111530     4.6523004     2.0008299     2.0040762     2.0110354     2.0224802     2.0393634     2.0628607     2.0943961     2.1356809     2.1888053     2.2562582     2.3410203     2.4466560     2.5773835     2.7382028     2.9350126     3.1747231     3.4654243     3.8165619     4.2390566     4.6650591     2.0009699     2.0048320     2.0130172     2.0262954     2.0456030     2.0720963     2.1071587     2.1524975     2.2101033     2.2823873     2.3721943     2.4828682     2.6183615     2.7832732     2.9829595     3.2236094     3.5123274     3.8573010     4.2677646     4.6781449     2.0011342     2.0057313     2.0153842     2.0308251     2.0529592     2.0829008     2.1219997     2.1718652     2.2344298     2.3119578     2.4071174     2.5230422     2.6633477     2.8322165     3.0344331     3.2754967     3.5615613     3.8995786     4.2973170     4.6915736
     2.0013363     2.0068064     2.0182116     2.0362003     2.0616331     2.0955541     2.1392372     2.1941910     2.2622023     2.3454075     2.4462564     2.5675914     2.7127130     2.8853419     3.0897019     3.3305731     3.6132128     3.9434652     4.3277469     4.7053423     2.0015850     2.0080945     2.0215783     2.0425797     2.0718615     2.1103668     2.1592505     2.2198849     2.2939196     2.3832266     2.4900789     2.6169822     2.7668619     2.9429765     3.1489966     3.3890021     3.6673884     3.9890125     4.3590441     4.7194657     2.0018876     2.0096374     2.0255983     2.0501463     2.0839081     2.1276951     2.1824741     2.2494588     2.3300602     2.4259658     2.5390840     2.6716745     2.8261793     3.0054379     3.2125702     3.4509256     3.7241750     4.0362520     4.3912387     4.7339716     2.0022688     2.0114925     2.0303948     2.0591140     2.0980880     2.1479201     2.2093782     2.2834284     2.3712094     2.4741485     2.5938296     2.7321081     2.8910718     3.0730629     3.2806191     3.5164995     3.7836547     4.0851874     4.4243526     4.7488527     2.0027354     2.0137186     2.0361135     2.0697315     2.1147528     2.1715147     2.2404859     2.3223464     2.4179547     2.5283544     2.6548078     2.7987804     2.9619179     3.1460977     3.3533282     3.5858204     3.8458862     4.1358905     4.4583592     4.7641525
     2.0033174     2.0163980     2.0429318     2.0822799     2.1342998     2.1989424     2.2763476     2.3668370     2.4708807     2.5891659     2.7225559     2.8721054     3.0390401     3.2247944     3.4308751     3.6589637     3.9108615     4.1883311     4.4932799     4.7798595     2.0040426     2.0196326     2.0510452     2.0970907     2.1571527     2.2307475     2.3175786     2.4174876     2.5305958     2.6571243     2.7975187     2.9524701     3.1227288     3.3093216     3.5133214     3.7359684     3.9785697     4.2424927     4.5290976     4.7959805     2.0049474     2.0235362     2.0607028     2.1145244     2.1838055     2.2674906     2.3647428     2.4749334     2.5976548     2.7327194     2.8801322     3.0401287     3.2131550     3.3997674     3.6006963     3.8167796     4.0490084     4.2983065     4.5657673     4.8125291     2.0060790     2.0282609     2.0721612     2.1349926     2.2147608     2.3097477     2.4184675     2.5397127     2.6725798     2.8163328     2.9706538     3.1352930     3.3103855     3.4960852     3.6929171     3.9013162     4.1219954     4.3557444     4.6032376     4.8294697     2.0075006     2.0339799     2.0857553     2.1589348     2.2505660     2.3580832     2.4793065     2.6123374     2.7557120     2.9082754     3.0692039     3.2379477     3.4143169     3.5981669     3.7897084     3.9893596     4.1973944     4.4146304     4.6414928     4.8467703
     2.0093083     2.0409193     2.1018403     2.1868157     2.2917461     2.4130752     2.5477293     2.6931684     2.8473263     3.0085893     3.1757245     3.3479185     3.5246458     3.7055981     3.8908448     4.0805573     4.2750235     4.4747653     4.6803627     4.8643904     2.0116532     2.0493448     2.1208000     2.2191420     2.3388507     2.4751675     2.6241131     2.7824140     2.9474499     3.1171162     3.2899358     3.4647567     3.6408665     3.8179300     3.9957500     4.1745162     4.3544526     4.5359955     4.7197642     4.8822742     2.0147431     2.0595582     2.1430676     2.2564180     2.3923216     2.5447366     2.7086625     2.8800719     3.0558481     3.2334471     3.4112048     3.5878036     3.7623005     3.9343436     4.1037984     4.2706857     4.4352636     4.5980244     4.7595181     4.9002781     2.0188930     2.0719144     2.1690962     2.2990820     2.4525747     2.6220098     2.8013446     2.9858789     3.1719773     3.3569019     3.5387051     3.7159662     3.8879349     4.0539970     4.2141304     4.3683505     4.5169969     4.6604733     4.7994304     4.9183006     2.0252151     2.0865989     2.1991024     2.3473995     2.5197179     2.7068720     2.9018228     3.0991724     3.2949848     3.4863255     3.6711688     3.8481719     4.0164776     4.1756968     4.3257284     4.4667382     4.5989738     4.7228765     4.8390660     4.9374352
     3.0004413     3.0003741     3.0003107     3.0002584     3.0002205     3.0002015     3.0001965     3.0001984     3.0002182     3.0002346     3.0002794     3.0003381     3.0004537     3.0006788     3.0011230     3.0019135     3.0033531     3.0058024     3.0098839     3.0173581     3.0022256     3.0022669     3.0023119     3.0023677     3.0024285     3.0024953     3.0025656     3.0026519     3.0027523     3.0028977     3.0030863     3.0033917     3.0038793     3.0046217     3.0057838     3.0075772     3.0102332     3.0141439     3.0197790     3.0275421     3.0061746     3.0064940     3.0068512     3.0072539     3.0077088     3.0082195     3.0087912     3.0094395     3.0101814     3.0110376     3.0120625     3.0133004     3.0148425     3.0168025     3.0193238     3.0226302     3.0269873     3.0327306     3.0402985     3.0499833     3.0129154     3.0137272     3.0146279     3.0156219     3.0167384     3.0179732     3.0193539     3.0208931     3.0226290     3.0246053     3.0268667     3.0294981     3.0325949     3.0362985     3.0407655     3.0462401     3.0529776     3.0612831     3.0715628     3.0840786     3.0232337     3.0248137     3.0265412     3.0284386     3.0305195     3.0328155     3.0353568     3.0381622     3.0412807     3.0447619     3.0486991     3.0531723     3.0583036     3.0642357     3.0711839     3.0793390     3.0889909     3.1004503     3.1140525     3.1299949
     3.0380948     3.0407791     3.0436854     3.0468376     3.0502717     3.0540113     3.0580924     3.0625527     3.0674744     3.0728917     3.0789196     3.0856607     3.0932431     3.1018541     3.1116667     3.1229298     3.1358919     3.1508715     3.1681271     3.1878719     3.0586808     3.0628862     3.0673859     3.0722280     3.0774326     3.0830381     3.0890887     3.0956452     3.1027513     3.1105247     3.1190164     3.1283915     3.1387949     3.1503892     3.1634133     3.1780319     3.1945624     3.2132075     3.2342446     3.2578485     3.0864427     3.0926514     3.0992379     3.1062436     3.1136901     3.1216269     3.1301012     3.1391575     3.1488743     3.1593401     3.1706719     3.1829796     3.1964645     3.2112854     3.2276144     3.2457104     3.2657843     3.2880819     3.3128226     3.3400891     3.1231489     3.1319077     3.1411252     3.1508241     3.1610322     3.1717837     3.1831160     3.1950855     3.2077637     3.2212415     3.2356441     3.2511182     3.2677925     3.2858543     3.3055241     3.3269873     3.3504658     3.3761432     3.4041588     3.4346745     3.1709456     3.1828799     3.1953044     3.2082427     3.2217216     3.2357450     3.2503552     3.2655785     3.2815273     3.2982433     3.3158598     3.3345063     3.3543684     3.3755875     3.3983500     3.4228778     3.4493346     3.4778843     3.5086668     3.5417199
     3.2324703     3.2481811     3.2643971     3.2811170     3.2983325     3.3160484     3.3342650     3.3530228     3.3723633     3.3923895     3.4131980     3.4349360     3.4577451     3.4817886     3.5072827     3.5343347     3.5631654     3.5938733     3.6265655     3.6613088     3.3108730     3.3309519     3.3514822     3.3724298     3.3937657     3.4154377     3.4374542     3.4598329     3.4825718     3.5057909     3.5295870     3.5540450     3.5794048     3.6057410     3.6333013     3.6621866     3.6925337     3.7245271     3.7581546     3.7935195     3.4099879     3.4348717     3.4600883     3.4855423     3.5111597     3.5368791     3.5626562     3.5884826     3.6143944     3.6404324     3.6667428     3.6934254     3.7206118     3.7485185     3.7772505     3.8070307     3.8379216     3.8700845     3.9035535     3.9383419     3.5344326     3.5643082     3.5942597     3.6241782     3.6539311     3.6834347     3.7126193     3.7414305     3.7699282     3.7981558     3.8262239     3.8542566     3.8824182     3.9108691     3.9397829     3.9693244     3.9996388     4.0307593     4.0628190     4.0958314     3.6897564     3.7242768     3.7585578     3.7923884     3.8256650     3.8582208     3.8899710     3.9209151     3.9510546     3.9804265     4.0091677     4.0374746     4.0654082     4.0932660     4.1211538     4.1492314     4.1776929     4.2065387     4.2359343     4.2659044
     3.8826110     3.9206686     3.9580438     3.9945562     4.0299911     4.0642323     4.0971828     4.1288066     4.1591277     4.1882648     4.2163181     4.2434525     4.2698412     4.2957039     4.3212171     4.3465347     4.3718171     4.3971949     4.4226956     4.4484601     4.1209550     4.1601806     4.1983390     4.2351956     4.2705674     4.3042603     4.3362498     4.3664875     4.3950663     4.4220686     4.4476495     4.4719553     4.4952316     4.5176110     4.5393586     4.5605950     4.5815139     4.6022253     4.6228275     4.6433010     4.4142761     4.4504747     4.4854741     4.5189748     4.5507464     4.5806570     4.6086426     4.6347318     4.6589589     4.6815286     4.7024856     4.7220626     4.7405033     4.7579236     4.7745066     4.7904429     4.8059030     4.8209481     4.8356490     4.8501396     4.7738504     4.8002467     4.8259263     4.8504810     4.8736486     4.8952208     4.9151735     4.9334631     4.9502001     4.9654584     4.9794044     4.9922028     5.0039287     5.0148249     5.0249538     5.0345521     5.0436101     5.0522499     5.0605249     5.0684695     5.1405463     5.1518178     5.1631465     5.1739488     5.1839514     5.1931095     5.2014227     5.2090340     5.2160058     5.2225056     5.2285910     5.2343874     5.2399144     5.2452612     5.2504091     5.2552962     5.2599216     5.2642007     5.2678833     5.2707992