Variables = "x","y", "Velocity_x", "Velocity_y", "Velocity_whole value", "Pressure", "Temperature", "Absolute pressure", "Total pressure"
Zone i=22, j=22
 0.0000000e+000  0.0000000e+000  0.0000000e+000  0.0000000e+000  0.0000000e+000 -1.1142259e-003  9.9997818e-001 -1.1142259e-003 -1.1142259e-003 
 8.7298146e-003  0.0000000e+000  0.0000000e+000  0.0000000e+000  0.0000000e+000 -1.1381409e-003  1.0000000e+000 -1.1381409e-003 -1.1381409e-003 
 2.7062416e-002  0.0000000e+000  0.0000000e+000  0.0000000e+000  0.0000000e+000 -1.1883002e-003  1.0000000e+000 -1.1883002e-003 -1.1883002e-003 
 4.7228277e-002  0.0000000e+000  0.0000000e+000  0.0000000e+000  0.0000000e+000 -1.4442083e-003  1.0000000e+000 -1.4442083e-003 -1.4442083e-003 
 6.9410741e-002  0.0000000e+000  0.0000000e+000  0.0000000e+000  0.0000000e+000 -1.9188197e-003  1.0000000e+000 -1.9188197e-003 -1.9188197e-003 
 9.3811467e-002  0.0000000e+000  0.0000000e+000  0.0000000e+000  0.0000000e+000 -2.5068242e-003  1.0000000e+000 -2.5068242e-003 -2.5068242e-003 
 1.2065224e-001  0.0000000e+000  0.0000000e+000  0.0000000e+000  0.0000000e+000 -3.1549893e-003  1.0000000e+000 -3.1549893e-003 -3.1549893e-003 
 1.5017705e-001  0.0000000e+000  0.0000000e+000  0.0000000e+000  0.0000000e+000 -3.8090483e-003  1.0000000e+000 -3.8090483e-003 -3.8090483e-003 
 1.8265435e-001  0.0000000e+000  0.0000000e+000  0.0000000e+000  0.0000000e+000 -4.4156020e-003  1.0000000e+000 -4.4156020e-003 -4.4156020e-003 
 2.1837941e-001  0.0000000e+000  0.0000000e+000  0.0000000e+000  0.0000000e+000 -4.9161026e-003  1.0000000e+000 -4.9161026e-003 -4.9161026e-003 
 2.5767696e-001  0.0000000e+000  0.0000000e+000  0.0000000e+000  0.0000000e+000 -5.2292747e-003  1.0000000e+000 -5.2292747e-003 -5.2292747e-003 
 3.0090424e-001  0.0000000e+000  0.0000000e+000  0.0000000e+000  0.0000000e+000 -5.2252496e-003  1.0000000e+000 -5.2252496e-003 -5.2252496e-003 
 3.4845430e-001  0.0000000e+000  0.0000000e+000  0.0000000e+000  0.0000000e+000 -4.6972712e-003  1.0000000e+000 -4.6972712e-003 -4.6972712e-003 
 4.0075934e-001  0.0000000e+000  0.0000000e+000  0.0000000e+000  0.0000000e+000 -3.3467754e-003  1.0000000e+000 -3.3467754e-003 -3.3467754e-003 
 4.5829487e-001  0.0000000e+000  0.0000000e+000  0.0000000e+000  0.0000000e+000 -8.1766077e-004  1.0000000e+000 -8.1766077e-004 -8.1766077e-004 
 5.2158397e-001  0.0000000e+000  0.0000000e+000  0.0000000e+000  0.0000000e+000  3.1530859e-003  1.0000000e+000  3.1530859e-003  3.1530859e-003 
 5.9120196e-001  0.0000000e+000  0.0000000e+000  0.0000000e+000  0.0000000e+000  8.3853910e-003  1.0000000e+000  8.3853910e-003  8.3853910e-003 
 6.6778171e-001  0.0000000e+000  0.0000000e+000  0.0000000e+000  0.0000000e+000  1.3716583e-002  1.0000000e+000  1.3716583e-002  1.3716583e-002 
 7.5201952e-001  0.0000000e+000  0.0000000e+000  0.0000000e+000  0.0000000e+000  1.6815199e-002  1.0000000e+000  1.6815199e-002  1.6815199e-002 
 8.4468120e-001  0.0000000e+000  0.0000000e+000  0.0000000e+000  0.0000000e+000  1.5984368e-002  1.0000000e+000  1.5984368e-002  1.5984368e-002 
 9.4660914e-001  0.0000000e+000  0.0000000e+000  0.0000000e+000  0.0000000e+000  1.1065212e-002  1.0000000e+000  1.1065212e-002  1.1065212e-002 
 1.0000000e+000  0.0000000e+000  0.0000000e+000  0.0000000e+000  0.0000000e+000  8.4903771e-003  1.0004507e+000  8.4903771e-003  8.4903771e-003 
 0.0000000e+000  7.8568254e-003  0.0000000e+000  0.0000000e+000  0.0000000e+000 -1.1014875e-003  1.0095922e+000 -1.1014875e-003 -1.1014875e-003 
 9.1655646e-003  7.9974197e-003  3.4912238e-005 -2.4728835e-005  4.2782936e-005 -1.1296413e-003  1.0097870e+000 -1.1296413e-003 -1.1296404e-003 
 2.8340746e-002  8.2905451e-003  1.1773164e-004 -3.9830735e-005  1.2428687e-004 -1.1885415e-003  1.0101945e+000 -1.1885415e-003 -1.1885338e-003 
 4.9293049e-002  8.6088702e-003  1.6842355e-004 -3.1740739e-005  1.7138835e-004 -1.4403965e-003  1.0106988e+000 -1.4403965e-003 -1.4403819e-003 
 7.2208665e-002  8.9551620e-003  9.3516232e-005 -2.3926670e-005  9.6528602e-005 -1.8806994e-003  1.0113424e+000 -1.8806994e-003 -1.8806948e-003 
 9.7290874e-002  9.3324250e-003 -1.7286593e-004 -1.1346072e-005  1.7323787e-004 -2.4234920e-003  1.0121872e+000 -2.4234920e-003 -2.4234771e-003 
 1.2476175e-001  9.7439121e-003 -6.7777361e-004  3.2811249e-006  6.7778153e-004 -3.0151275e-003  1.0133182e+000 -3.0151275e-003 -3.0148977e-003 
 1.5486389e-001  1.0193158e-002 -1.4663701e-003  1.8830933e-005  1.4664910e-003 -3.6029918e-003  1.0148453e+000 -3.6029918e-003 -3.6019166e-003 
 1.8786250e-001  1.0683995e-002 -2.5863978e-003  3.6051610e-005  2.5866490e-003 -4.1350913e-003  1.0169007e+000 -4.1350913e-003 -4.1317460e-003 
 2.2404735e-001  1.1220587e-002 -4.0929164e-003  5.7350768e-005  4.0933182e-003 -4.5536105e-003  1.0196308e+000 -4.5536105e-003 -4.5452327e-003 
 2.6373515e-001  1.1807458e-002 -6.0484409e-003  8.6882676e-005  6.0490649e-003 -4.7790864e-003  1.0231836e+000 -4.7790864e-003 -4.7607911e-003 
 3.0727196e-001  1.2449508e-002 -8.5104993e-003  1.2981416e-004  8.5114893e-003 -4.6880511e-003  1.0276942e+000 -4.6880511e-003 -4.6518282e-003 
 3.5503575e-001  1.3152053e-002 -1.1494516e-002  1.8940822e-004  1.1496077e-002 -4.0898039e-003  1.0332706e+000 -4.0898039e-003 -4.0237242e-003 
 4.0743941e-001  1.3920853e-002 -1.4894993e-002  2.5975402e-004  1.4897258e-002 -2.7165655e-003  1.0399765e+000 -2.7165655e-003 -2.6056014e-003 
 4.6493360e-001  1.4762145e-002 -1.8348588e-002  3.1223297e-004  1.8351244e-002 -2.5825007e-004  1.0477879e+000 -2.5825007e-004 -8.9865993e-005 
 5.2801025e-001  1.5682675e-002 -2.1049740e-002  2.8048971e-004  2.1051608e-002  3.4998895e-003  1.0564868e+000  3.4998895e-003  3.7214747e-003 
 5.9720570e-001  1.6689727e-002 -2.1631962e-002  6.9674956e-005  2.1632073e-002  8.3646728e-003  1.0654889e+000  8.3646728e-003  8.5986461e-003 
 6.7310452e-001  1.7791158e-002 -1.8498486e-002 -3.4466898e-004  1.8501697e-002  1.3255859e-002  1.0735561e+000  1.3255859e-002  1.3427015e-002 
 7.5634366e-001  1.8995419e-002 -1.1244700e-002 -6.9355604e-004  1.1266069e-002  1.6058361e-002  1.0786997e+000  1.6058361e-002  1.6121823e-002 
 8.4761608e-001  2.0311594e-002 -2.1910244e-003 -5.2664155e-004  2.2534283e-003  1.5300040e-002  1.0792626e+000  1.5300040e-002  1.5302579e-002 
 9.4767547e-001  2.1749418e-002  2.3883651e-003  2.4866534e-004  2.4012751e-003  1.0815903e-002  1.0771655e+000  1.0815903e-002  1.0818786e-002 
 1.0000000e+000  2.2500001e-002  0.0000000e+000  0.0000000e+000  0.0000000e+000  8.4709907e-003  1.0760689e+000  8.4709907e-003  8.4709907e-003 
 0.0000000e+000  2.4356160e-002  0.0000000e+000  0.0000000e+000  0.0000000e+000 -1.0745999e-003  1.0298343e+000 -1.0745999e-003 -1.0745999e-003 
 1.0081252e-002  2.4797758e-002  7.5540076e-005 -1.1287685e-004  1.3582152e-004 -1.1117860e-003  1.0304631e+000 -1.1117860e-003 -1.1117768e-003 
 3.1027419e-002  2.5714323e-002  1.8498689e-004 -1.1358786e-004  2.1707683e-004 -1.1890486e-003  1.0317696e+000 -1.1890486e-003 -1.1890251e-003 
 5.3632375e-002  2.6701592e-002  8.0427264e-005  3.8553972e-005  8.9190544e-005 -1.4323855e-003  1.0334088e+000 -1.4323855e-003 -1.4323816e-003 
 7.8086242e-002  2.7767781e-002 -4.4888209e-004  2.6615703e-004  5.2185694e-004 -1.8006183e-003  1.0355259e+000 -1.8006183e-003 -1.8004820e-003 
 1.0459413e-001  2.8921748e-002 -1.5672400e-003  5.3859607e-004  1.6572046e-003 -2.2485736e-003  1.0383312e+000 -2.2485736e-003 -2.2472003e-003 
 1.3337748e-001  3.0173028e-002 -3.4098616e-003  8.3418214e-004  3.5104153e-003 -2.7218943e-003  1.0421042e+000 -2.7218943e-003 -2.7157329e-003 
 1.6467522e-001  3.1531900e-002 -6.0992180e-003  1.1436918e-003  6.2055211e-003 -3.1716276e-003  1.0471922e+000 -3.1716276e-003 -3.1523735e-003 
 1.9874528e-001  3.3009436e-002 -9.7595183e-003  1.4670594e-003  9.8691676e-003 -3.5489348e-003  1.0539920e+000 -3.5489348e-003 -3.5002346e-003 
 2.3586589e-001  3.4617558e-002 -1.4520315e-002  1.8067559e-003  1.4632290e-002 -3.7977500e-003  1.0629208e+000 -3.7977500e-003 -3.6906980e-003 
 2.7633727e-001  3.6369104e-002 -2.0499464e-002  2.1566337e-003  2.0612596e-002 -3.8426139e-003  1.0743756e+000 -3.8426139e-003 -3.6301743e-003 
 3.2048279e-001  3.8277857e-002 -2.7746407e-002  2.4832240e-003  2.7857305e-002 -3.5735508e-003  1.0886929e+000 -3.5735508e-003 -3.1855360e-003 
 3.6865059e-001  4.0358640e-002 -3.6120716e-002  2.6975276e-003  3.6221303e-002 -2.8331794e-003  1.1061107e+000 -2.8331794e-003 -2.1771879e-003 
 4.2121512e-001  4.2627338e-002 -4.5081571e-002  2.6201988e-003  4.5157652e-002 -1.4169845e-003  1.1267111e+000 -1.4169845e-003 -3.9737773e-004 
 4.7857836e-001  4.5100968e-002 -5.3392366e-002  1.9595618e-003  5.3428311e-002  8.9145143e-004  1.1502697e+000  8.9145143e-004  2.3187436e-003 
 5.4117143e-001  4.7797713e-002 -5.8837727e-002  3.6183425e-004  5.8838841e-002  4.2100861e-003  1.1759301e+000  4.2100861e-003  5.9410906e-003 
 6.0945523e-001  5.0736964e-002 -5.8274299e-002 -2.3461962e-003  5.8321510e-002  8.3224075e-003  1.2017363e+000  8.3224075e-003  1.0023107e-002 
 6.8392193e-001  5.3939339e-002 -4.8717201e-002 -5.5990047e-003  4.9037889e-002  1.2319738e-002  1.2239470e+000  1.2319738e-002  1.3522095e-002 
 7.6509541e-001  5.7426691e-002 -3.0202165e-002 -7.5060036e-003  3.1120908e-002  1.4527110e-002  1.2371167e+000  1.4527110e-002  1.5011366e-002 
 8.5353154e-001  6.1222117e-002 -8.5739959e-003 -5.6973789e-003  1.0294344e-002  1.3921683e-002  1.2373232e+000  1.3921683e-002  1.3974669e-002 
 9.4981837e-001  6.5349922e-002  2.6493168e-003 -9.0186724e-005  2.6508514e-003  1.0316116e-002  1.2303764e+000  1.0316116e-002  1.0319630e-002 
 1.0000000e+000  6.7500025e-002  0.0000000e+000  0.0000000e+000  0.0000000e+000  8.4370133e-003  1.2267560e+000  8.4370133e-003  8.4370133e-003 
 0.0000000e+000  4.2505443e-002  0.0000000e+000  0.0000000e+000  0.0000000e+000 -8.5731398e-004  1.0519822e+000 -8.5731398e-004 -8.5731398e-004 
 1.1089623e-002  4.3288529e-002  9.0281275e-005 -2.0514704e-004  2.2413392e-004 -9.2671107e-004  1.0531164e+000 -9.2671107e-004 -9.2668593e-004 
 3.3986591e-002  4.4904474e-002  4.5197205e-005 -3.0452873e-005  5.4499218e-005 -1.0699963e-003  1.0554583e+000 -1.0699963e-003 -1.0699948e-003 
 5.8410920e-002  4.6626426e-002 -5.3688954e-004  5.2159850e-004  7.4854214e-004 -1.3253167e-003  1.0584366e+000 -1.3253167e-003 -1.3250365e-003 
 8.4553041e-002  4.8467711e-002 -1.9322329e-003  1.2817862e-003  2.3187280e-003 -1.6764883e-003  1.0623400e+000 -1.6764883e-003 -1.6738001e-003 
 1.1261694e-001  5.0442584e-002 -4.3691033e-003  2.1504445e-003  4.8696483e-003 -2.0733150e-003  1.0675720e+000 -2.0733150e-003 -2.0614583e-003 
 1.4282092e-001  5.2566290e-002 -8.0340132e-003  3.0708648e-003  8.6009055e-003 -2.4680851e-003  1.0746465e+000 -2.4680851e-003 -2.4310974e-003 
 1.7539835e-001  5.4855127e-002 -1.3092902e-002  4.0173908e-003  1.3695383e-002 -2.8183043e-003  1.0841662e+000 -2.8183043e-003 -2.7245225e-003 
 2.1059832e-001  5.7326466e-002 -1.9702533e-002  4.9799369e-003  2.0322146e-002 -3.0815734e-003  1.0967793e+000 -3.0815734e-003 -2.8750787e-003 
 2.4868645e-001  5.9998818e-002 -2.7999705e-002  5.9395460e-003  2.8622748e-002 -3.2087583e-003  1.1131182e+000 -3.2087583e-003 -2.7991275e-003 
 2.8994554e-001  6.2891856e-002 -3.8052674e-002  6.8318550e-003  3.8661096e-002 -3.1340085e-003  1.1337304e+000 -3.1340085e-003 -2.3866685e-003 
 3.3467606e-001  6.6026464e-002 -4.9752574e-002  7.4962592e-003  5.0314140e-002 -2.7633270e-003  1.1590192e+000 -2.7633270e-003 -1.4975707e-003 
 3.8319665e-001  6.9424756e-002 -6.2623069e-002  7.6153083e-003  6.3084401e-002 -1.9651849e-003  1.1891828e+000 -1.9651849e-003  2.4635898e-005 
 4.3584439e-001  7.3110089e-002 -7.5545199e-002  6.6680480e-003  7.5838909e-002 -5.7100772e-004  1.2241070e+000 -5.7100772e-004  2.3047624e-003 
 4.9297482e-001  7.7107042e-002 -8.6448446e-002  3.9602513e-003  8.6539112e-002  1.5962021e-003  1.2630602e+000  1.5962021e-003  5.3407107e-003 
 5.5496168e-001  8.1441432e-002 -9.2143819e-002 -1.1352112e-003  9.2150815e-002  4.6269316e-003  1.3042341e+000  4.6269316e-003  8.8728173e-003 
 6.2219632e-001  8.6140215e-002 -8.8689327e-002 -8.5418466e-003  8.9099720e-002  8.3126165e-003  1.3440832e+000  8.3126165e-003  1.2281996e-002 
 6.9508660e-001  9.1231406e-002 -7.2950788e-002 -1.6395783e-002  7.4770577e-002  1.1822985e-002  1.3765876e+000  1.1822985e-002  1.4618305e-002 
 7.7405536e-001  9.6744023e-002 -4.5844227e-002 -2.0299455e-002  5.0137423e-002  1.3672416e-002  1.3939425e+000  1.3672416e-002  1.4929296e-002 
 8.5953850e-001  1.0270783e-001 -1.5236256e-002 -1.5353890e-002  2.1630660e-002  1.3045172e-002  1.3914380e+000  1.3045172e-002  1.3279115e-002 
 9.5198196e-001  1.0915315e-001  1.6572269e-003 -1.9481794e-003  2.5576951e-003  9.3633607e-003  1.3784661e+000  9.3633607e-003  9.3666315e-003 
 1.0000000e+000  1.1250003e-001  0.0000000e+000  0.0000000e+000  0.0000000e+000  7.4509140e-003  1.3717282e+000  7.4509140e-003  7.4509140e-003 
 0.0000000e+000  6.2469624e-002  0.0000000e+000  0.0000000e+000  0.0000000e+000 -4.3512057e-004  1.0760905e+000 -4.3512057e-004 -4.3512057e-004 
 1.2199646e-002  6.3635968e-002  8.9727771e-005 -1.9092837e-004  2.1096141e-004 -5.6807109e-004  1.0778033e+000 -5.6807109e-004 -5.6804885e-004 
 3.7244145e-002  6.6029504e-002 -3.1604210e-004  4.7917740e-004  5.7401531e-004 -8.4100268e-004  1.0813195e+000 -8.4100268e-004 -8.4083795e-004 
 6.3669339e-002  6.8553321e-002 -1.7494794e-003  1.8025028e-003  2.5119106e-003 -1.1410279e-003  1.0858774e+000 -1.1410279e-003 -1.1378730e-003 
 9.1662116e-002  7.1225137e-002 -4.4782702e-003  3.4672129e-003  5.6636091e-003 -1.4927904e-003  1.0919696e+000 -1.4927904e-003 -1.4767522e-003 
 1.2142216e-001  7.4063897e-002 -8.7414514e-003  5.2903332e-003  1.0217661e-002 -1.8555556e-003  1.1002498e+000 -1.8555556e-003 -1.8033553e-003 
 1.5316203e-001  7.7089757e-002 -1.4730627e-002  7.1694250e-003  1.6382674e-002 -2.1889268e-003  1.1115004e+000 -2.1889268e-003 -2.0547309e-003 
 1.8710735e-001  8.0324106e-002 -2.2605097e-002  9.0530226e-003  2.4350516e-002 -2.4611589e-003  1.1265746e+000 -2.4611589e-003 -2.1646852e-003 
 2.2349687e-001  8.3789557e-002 -3.2492779e-002  1.0900756e-002  3.4272544e-002 -2.6421153e-003  1.1463132e+000 -2.6421153e-003 -2.0548117e-003 
 2.6258245e-001  8.7509975e-002 -4.4456441e-002  1.2629203e-002  4.6215493e-002 -2.6958934e-003  1.1714468e+000 -2.6958934e-003 -1.6279574e-003 
 3.0462897e-001  9.1510408e-002 -5.8410257e-002  1.4042094e-002  6.0074441e-002 -2.5715141e-003  1.2025065e+000 -2.5715141e-003 -7.6704484e-004 
 3.4991401e-001  9.5817111e-002 -7.3971555e-002  1.4749479e-002  7.5427704e-002 -2.1914875e-003  1.2397516e+000 -2.1914875e-003  6.5318152e-004 
 3.9872754e-001  1.0045744e-001 -9.0242863e-002  1.4096619e-002  9.1337226e-002 -1.4400268e-003  1.2830853e+000 -1.4400268e-003  2.7312178e-003 
 4.5137095e-001  1.0545985e-001 -1.0554948e-001  1.1154446e-002  1.0613725e-001 -1.5788348e-004  1.3318683e+000 -1.5788348e-004  5.4746740e-003 
 5.0815618e-001  1.1085375e-001 -1.1721814e-001  4.8780763e-003  1.1731960e-001  1.8357658e-003  1.3844663e+000  1.8357658e-003  8.7177102e-003 
 5.6940413e-001  1.1666930e-001 -1.2158510e-001 -5.3929999e-003  1.2170465e-001  4.6485444e-003  1.4378541e+000  4.6485444e-003  1.2054555e-002 
 6.3544285e-001  1.2293732e-001 -1.1457099e-001 -1.8913850e-002  1.1612169e-001  8.0924323e-003  1.4869733e+000  8.0924323e-003  1.4834555e-002 
 7.0660520e-001  1.2968905e-001 -9.3342729e-002 -3.2079373e-002  9.8701321e-002  1.1356315e-002  1.5243886e+000  1.1356315e-002  1.6227290e-002 
 7.8322577e-001  1.3695575e-001 -5.9424270e-002 -3.7743784e-002  7.0397705e-002  1.3004110e-002  1.5417609e+000  1.3004110e-002  1.5482029e-002 
 8.6563706e-001  1.4476848e-001 -2.1567088e-002 -2.8496811e-002  3.5738040e-002  1.2268813e-002  1.5351452e+000  1.2268813e-002  1.2907417e-002 
 9.5416594e-001  1.5315762e-001  6.1403116e-004 -5.5465223e-003  5.5804071e-003  8.0772378e-003  1.5164545e+000  8.0772378e-003  8.0928085e-003 
 1.0000000e+000  1.5750006e-001  0.0000000e+000  0.0000000e+000  0.0000000e+000  5.9071351e-003  1.5067778e+000  5.9071351e-003  5.9071351e-003 
 0.0000000e+000  8.4430233e-002  0.0000000e+000  0.0000000e+000  0.0000000e+000  1.5559985e-004  1.1021700e+000  1.5559985e-004  1.5559985e-004 
 1.3421068e-002  8.6021885e-002  7.2376264e-005  6.0025657e-005  9.4028735e-005 -7.3991840e-005  1.1045356e+000 -7.3991840e-005 -7.3987416e-005 
 4.0827978e-002  8.9271411e-002 -9.3921251e-004  1.7495791e-003  1.9857360e-003 -5.4283516e-004  1.1093663e+000 -5.4283516e-004 -5.4086361e-004 
 6.9450945e-002  9.2663564e-002 -3.6571254e-003  4.3484927e-003  5.6818970e-003 -9.1462239e-004  1.1158026e+000 -9.1462239e-004 -8.9848042e-004 
 9.9469364e-002  9.6219473e-002 -8.2356781e-003  7.3665176e-003  1.1049524e-002 -1.2806377e-003  1.1246272e+000 -1.2806377e-003 -1.2195917e-003 
 1.3107528e-001  9.9961758e-002 -1.4854468e-002  1.0527633e-002  1.8206766e-002 -1.6228162e-003  1.1368054e+000 -1.6228162e-003 -1.4570730e-003 
 1.6447277e-001  1.0391445e-001 -2.3649534e-002  1.3680195e-002  2.7321205e-002 -1.9136581e-003  1.1533966e+000 -1.9136581e-003 -1.5404340e-003 
 1.9987759e-001  1.0810297e-001 -3.4710620e-002  1.6734470e-002  3.8534004e-002 -2.1386479e-003  1.1754417e+000 -2.1386479e-003 -1.3962132e-003 
 2.3751657e-001  1.1255403e-001 -4.8066128e-002  1.9586021e-002  5.1903419e-002 -2.2860297e-003  1.2038310e+000 -2.2860297e-003 -9.3904731e-004 
 2.7762684e-001  1.1729555e-001 -6.3625053e-002  2.2025513e-002  6.7329563e-002 -2.3374027e-003  1.2391815e+000 -2.3374027e-003 -7.0767404e-005 
 3.2045519e-001  1.2235657e-001 -8.1068330e-002  2.3640757e-002  8.4445007e-002 -2.2570721e-003  1.2817426e+000 -2.2570721e-003  1.3084076e-003 
 3.6625680e-001  1.2776710e-001 -9.9689290e-002  2.3728298e-002  1.0247432e-001 -1.9775059e-003  1.3313218e+000 -1.9775059e-003  3.2729874e-003 
 4.1529411e-001  1.3355795e-001 -1.1819604e-001  2.1252582e-002  1.2009154e-001 -1.3821461e-003  1.3871655e+000 -1.3821461e-003  5.8288421e-003 
 4.6783528e-001  1.3976060e-001 -1.3451742e-001  1.4927847e-002  1.3534318e-001 -2.9487710e-004  1.4476497e+000 -2.9487710e-004  8.8640107e-003 
 5.2415228e-001  1.4640701e-001 -1.4569502e-001  3.5467430e-003  1.4573818e-001  1.4977516e-003  1.5099795e+000  1.4977516e-003  1.2117560e-002 
 5.8451855e-001  1.5352920e-001 -1.4800258e-001 -1.3273684e-002  1.4859661e-001  4.1390462e-003  1.5699193e+000  4.1390462e-003  1.5179523e-002 
 6.4920622e-001  1.6115899e-001 -1.3753362e-001 -3.3794515e-002  1.4162473e-001  7.4588098e-003  1.6216010e+000  7.4588098e-003  1.7487593e-002 
 7.1848279e-001  1.6932768e-001 -1.1169611e-001 -5.2495517e-002  1.2341718e-001  1.0635027e-002  1.6577827e+000  1.0635027e-002  1.8250927e-002 
 7.9260749e-001  1.7806542e-001 -7.2084911e-002 -5.9526149e-002  9.3485810e-002  1.2219668e-002  1.6717445e+000  1.2219668e-002  1.6589466e-002 
 8.7182689e-001  1.8740095e-001 -2.7654421e-002 -4.5024995e-002  5.2839540e-002  1.1391570e-002  1.6613109e+000  1.1391570e-002  1.2787579e-002 
 9.5637006e-001  1.9736084e-001 -2.9874980e-004 -1.0861326e-002  1.0865434e-002  6.4770253e-003  1.6388991e+000  6.4770253e-003  6.5360540e-003 
 1.0000000e+000  2.0250005e-001  0.0000000e+000  0.0000000e+000  0.0000000e+000  3.9407969e-003  1.6273332e+000  3.9407969e-003  3.9407969e-003 
 0.0000000e+000  1.0858691e-001  0.0000000e+000  0.0000000e+000  0.0000000e+000  8.6069573e-004  1.1301786e+000  8.6069573e-004  8.6069573e-004 
 1.4764465e-002  1.1064483e-001  2.9400084e-005  7.0828351e-004  7.0889341e-004  5.0096598e-004  1.1332748e+000  5.0096598e-004  5.0121726e-004 
 4.4768069e-002  1.1482611e-001 -1.8849571e-003  4.1874740e-003  4.5921677e-003 -2.3005642e-004  1.1395668e+000 -2.3005642e-004 -2.1951243e-004 
 7.5801648e-002  1.1914948e-001 -6.3795028e-003  8.7091476e-003  1.0795708e-002 -6.9840078e-004  1.1482768e+000 -6.9840078e-004 -6.4012711e-004 
 1.0803317e-001  1.2363825e-001 -1.3354185e-002  1.3589153e-002  1.9052541e-002 -1.0952604e-003  1.1605909e+000 -1.0952604e-003 -9.1376068e-004 
 1.4164367e-001  1.2831748e-001 -2.2841454e-002  1.8465973e-002  2.9372167e-002 -1.4396929e-003  1.1778275e+000 -1.4396929e-003 -1.0083308e-003 
 1.7682612e-001  1.3321388e-001 -3.4850433e-002  2.3143640e-002  4.1835163e-002 -1.7252935e-003  1.2012637e+000 -1.7252935e-003 -8.5020310e-004 
 2.1378432e-001  1.3835572e-001 -4.9333133e-002  2.7477879e-002  5.6469388e-002 -1.9617102e-003  1.2319551e+000 -1.9617102e-003 -3.6731423e-004 
 2.5273174e-001  1.4377262e-001 -6.6152461e-002  3.1255566e-002  7.3164597e-002 -2.1596781e-003  1.2705714e+000 -2.1596781e-003  5.1685108e-004 
 2.9389021e-001  1.4949527e-001 -8.5006125e-002  3.4074400e-002  9.1581143e-002 -2.3181019e-003  1.3172780e+000 -2.3181019e-003  1.8754511e-003 
 3.3748841e-001  1.5555537e-001 -1.0531369e-001  3.5239551e-002  1.1105314e-001 -2.4102731e-003  1.3716688e+000 -2.4102731e-003  3.7561264e-003 
 3.8376006e-001  1.6198532e-001 -1.2607731e-001  3.3703361e-002  1.3050443e-001 -2.3646031e-003  1.4326944e+000 -2.3646031e-003  6.1510992e-003 
 4.3294221e-001  1.6881791e-001 -1.4573830e-001  2.8096536e-002  1.4842193e-001 -2.0424111e-003  1.4984728e+000 -2.0424111e-003  8.9721233e-003 
 4.8527274e-001  1.7608595e-001 -1.6206264e-001  1.6927814e-002  1.6294432e-001 -1.2264154e-003  1.5661440e+000 -1.2264154e-003  1.2049011e-002 
 5.4098821e-001  1.8382223e-001 -1.7210217e-001 -9.3278394e-004  1.7210470e-001  3.4880603e-004  1.6318779e+000  3.4880603e-004  1.5158819e-002 
 6.0032070e-001  1.9205883e-001 -1.7230576e-001 -2.5339451e-002  1.7415902e-001  2.8706426e-003  1.6908869e+000  2.8706426e-003  1.8036325e-002 
 6.6349423e-001  2.0082660e-001 -1.5895170e-001 -5.3413484e-002  1.6768615e-001  6.1864555e-003  1.7377883e+000  6.1864555e-003  2.0245777e-002 
 7.3072171e-001  2.1015488e-001 -1.2937389e-001 -7.7743545e-002  1.5093596e-001  9.4513455e-003  1.7675565e+000  9.4513455e-003  2.0842178e-002 
 8.0220026e-001  2.2007078e-001 -8.4714800e-002 -8.5849106e-002  1.2060956e-001  1.1162659e-002  1.7765348e+000  1.1162659e-002  1.8435992e-002 
 8.7810695e-001  2.3059860e-001 -3.3810448e-002 -6.5246888e-002  7.3486753e-002  1.0330297e-002  1.7642289e+000  1.0330297e-002  1.3030448e-002 
 9.5859408e-001  2.4175918e-001 -1.1455559e-003 -1.7950406e-002  1.7986923e-002  4.5415214e-003  1.7412367e+000  4.5415214e-003  4.7032861e-003 
 1.0000000e+000  2.4750000e-001  0.0000000e+000  0.0000000e+000  0.0000000e+000  1.5635374e-003  1.7294085e+000  1.5635374e-003  1.5635374e-003 
 0.0000000e+000  1.3515925e-001  0.0000000e+000  0.0000000e+000  0.0000000e+000  1.6001400e-003  1.1600124e+000  1.6001400e-003  1.6001400e-003 
 1.6241265e-002  1.3772133e-001 -5.4515029e-005  1.9606894e-003  1.9614471e-003  1.0770359e-003  1.1639284e+000  1.0770359e-003  1.0789596e-003 
 4.9096450e-002  1.4290360e-001 -3.2277068e-003  8.2816575e-003  8.8884160e-003  1.8828305e-005  1.1718503e+000  1.8828305e-005  5.8330275e-005 
 8.2769677e-002  1.4821360e-001 -1.0036725e-002  1.5502174e-002  1.8467627e-002 -5.6997204e-004  1.1833841e+000 -5.6997204e-004 -3.9944542e-004 
 1.1741382e-001  1.5367535e-001 -1.9946890e-002  2.2770848e-002  3.0271932e-002 -1.0206838e-003  1.2002417e+000 -1.0206838e-003 -5.6248880e-004 
 1.5319572e-001  1.5931498e-001 -3.2743223e-002  2.9679218e-002  4.4192474e-002 -1.4077217e-003  1.2240680e+000 -1.4077217e-003 -4.3123434e-004 
 1.9029470e-001  1.6516066e-001 -4.8234798e-002  3.6004458e-002  6.0190670e-002 -1.7545854e-003  1.2561622e+000 -1.7545854e-003  5.6872934e-005 
 2.2890085e-001  1.7124225e-001 -6.6176049e-002  4.1530613e-002  7.8128494e-002 -2.0998984e-003  1.2972522e+000 -2.0998984e-003  9.5213222e-004 
 2.6921326e-001  1.7759100e-001 -8.6220458e-002  4.5890033e-002  9.7672217e-002 -2.4765141e-003  1.3473523e+000 -2.4765141e-003  2.2934172e-003 
 3.1143817e-001  1.8423927e-001 -1.0784069e-001  4.8437163e-002  1.1821917e-001 -2.8941266e-003  1.4057144e+000 -2.8941266e-003  4.0937597e-003 
 3.5578674e-001  1.9122028e-001 -1.3023202e-001  4.8174657e-002  1.3885668e-001 -3.3219615e-003  1.4708155e+000 -3.3219615e-003  6.3186269e-003 
 4.0247288e-001  1.9856757e-001 -1.5221493e-001  4.3757297e-002  1.5837957e-001 -3.6654240e-003  1.5402571e+000 -3.6654240e-003  8.8766189e-003 
 4.5171070e-001  2.0631473e-001 -1.7214945e-001  3.3613328e-002  1.7540036e-001 -3.7421740e-003  1.6108863e+000 -3.7421740e-003  1.1640470e-002 
 5.0371194e-001  2.1449493e-001 -1.8786758e-001  1.6245274e-002  1.8856865e-001 -3.2745833e-003  1.6789507e+000 -3.2745833e-003  1.4504486e-002 
 5.5868274e-001  2.2314055e-001 -1.9662669e-001 -9.1944877e-003  1.9684155e-001 -1.9318213e-003  1.7402653e+000 -1.9318213e-003  1.7441476e-002 
 6.1682063e-001  2.3228255e-001 -1.9510792e-001 -4.1911718e-002  1.9955875e-001  5.2798999e-004  1.7907962e+000  5.2798999e-004  2.0439837e-002 
 6.7831069e-001  2.4194986e-001 -1.7961647e-001 -7.7914961e-002  1.9578768e-001  3.9830683e-003  1.8272899e+000  3.9830683e-003  2.3149475e-002 
 7.4332166e-001  2.5216886e-001 -1.4706516e-001 -1.0802431e-001  1.8247579e-001  7.5673996e-003  1.8481765e+000  7.5673996e-003  2.4216106e-002 
 8.1200206e-001  2.6296273e-001 -9.7765483e-002 -1.1711612e-001  1.5255909e-001  9.6783144e-003  1.8528039e+000  9.6783144e-003  2.1315452e-002 
 8.8447577e-001  2.7435076e-001 -4.0296450e-002 -8.9652754e-002  9.8292522e-002  9.0124886e-003  1.8413607e+000  9.0124886e-003  1.3843199e-002 
 9.6083736e-001  2.8634772e-001 -2.0386484e-003 -2.7021894e-002  2.7098687e-002  2.2603690e-003  1.8210268e+000  2.2603690e-003  2.6275385e-003 
 1.0000000e+000  2.9249996e-001  0.0000000e+000  0.0000000e+000  0.0000000e+000 -1.2025033e-003  1.8105984e+000 -1.2025033e-003 -1.2025033e-003 
 0.0000000e+000  1.6438885e-001  0.0000000e+000  0.0000000e+000  0.0000000e+000  2.2563681e-003  1.1915017e+000  2.2563681e-003  2.2563681e-003 
 1.7863810e-002  1.6748740e-001 -2.0160340e-004  4.0794509e-003  4.0844292e-003  1.5385863e-003  1.1963515e+000  1.5385863e-003  1.5469276e-003 
 5.3847261e-002  1.7372830e-001 -5.0439620e-003  1.4595038e-002  1.5442044e-002  9.2747105e-005  1.2061206e+000  9.2747105e-005  2.1197545e-004 
 9.0405449e-002  1.8006775e-001 -1.4715390e-002  2.5376644e-002  2.9334566e-002 -6.4164773e-004  1.2212534e+000 -6.4164773e-004 -2.1138934e-004 
 1.2767288e-001  1.8652900e-001 -2.8032500e-002  3.5512310e-002  4.5243178e-002 -1.1839415e-003  1.2440735e+000 -1.1839415e-003 -1.6046889e-004 
 1.6579956e-001  1.9313787e-001 -4.4432018e-002  4.4632792e-002  6.2978491e-002 -1.6836072e-003  1.2763730e+000 -1.6836072e-003  2.9953796e-004 
 2.0494908e-001  1.9992268e-001 -6.3462153e-002  5.2524444e-002  8.2378775e-002 -2.2004650e-003  1.3190566e+000 -2.2004650e-003  1.1926661e-003 
 2.4529652e-001  2.0691371e-001 -8.4643729e-002  5.8889184e-002  1.0311400e-001 -2.8018723e-003  1.3719621e+000 -2.8018723e-003  2.5143761e-003 
 2.8702617e-001  2.1414275e-001 -1.0741662e-001  6.3175380e-002  1.2461725e-001 -3.5356544e-003  1.4338570e+000 -3.5356544e-003  4.2290753e-003 
 3.3032888e-001  2.2164279e-001 -1.3106896e-001  6.4485416e-002  1.4607342e-001 -4.4090543e-003  1.5025378e+000 -4.4090543e-003  6.2596663e-003 
 3.7539962e-001  2.2944757e-001 -1.5466936e-001  6.1567970e-002  1.6647290e-001 -5.3693010e-003  1.5748253e+000 -5.3693010e-003  8.4873121e-003 
 4.2243472e-001  2.3759100e-001 -1.7701001e-001  5.2901611e-002  1.8474612e-001 -6.2787221e-003  1.6470854e+000 -6.2787221e-003  1.0786841e-002 
 4.7162890e-001  2.4610670e-001 -1.9655332e-001  3.6889739e-002  1.9998515e-001 -6.8924450e-003  1.7154523e+000 -6.8924450e-003  1.3104585e-002 
 5.2317214e-001  2.5502750e-001 -2.1136093e-001  1.2209244e-002  2.1171327e-001 -6.8572825e-003  1.7761083e+000 -6.8572825e-003  1.5553972e-002 
 5.7724625e-001  2.6438484e-001 -2.1897493e-001 -2.1595821e-002  2.2003727e-001 -5.7621547e-003  1.8258668e+000 -5.7621547e-003  1.8446045e-002 
 6.3402182e-001  2.7420813e-001 -2.1625833e-001 -6.3102916e-002  2.2527681e-001 -3.2885359e-003  1.8628999e+000 -3.2885359e-003  2.2086287e-002 
 6.9365394e-001  2.8452411e-001 -1.9937135e-001 -1.0734986e-001  2.2643526e-001  4.9939472e-004  1.8870775e+000  4.9939472e-004  2.6135858e-002 
 7.5627869e-001  2.9535627e-001 -1.6457121e-001 -1.4353062e-001  2.1836832e-001  4.7222925e-003  1.8998713e+000  4.7222925e-003  2.8564654e-002 
 8.2200903e-001  3.0672404e-001 -1.1110205e-001 -1.5375631e-001  1.8969625e-001  7.6184324e-003  1.9022528e+000  7.6184324e-003  2.5610765e-002 
 8.9093089e-001  3.1864220e-001 -4.7148503e-002 -1.1879915e-001  1.2781322e-001  7.3954780e-003  1.8939865e+000  7.3954780e-003  1.5563588e-002 
 9.6309930e-001  3.3112013e-001 -3.0579125e-003 -3.8397383e-002  3.8518954e-002 -3.2205493e-004  1.8785828e+000 -3.2205493e-004  4.1980000e-004 
 1.0000000e+000  3.3749992e-001  0.0000000e+000  0.0000000e+000  0.0000000e+000 -4.2681261e-003  1.8707068e+000 -4.2681261e-003 -4.2681261e-003 
 0.0000000e+000  1.9654140e-001  0.0000000e+000  0.0000000e+000  0.0000000e+000  2.6632401e-003  1.2244079e+000  2.6632401e-003  2.6632401e-003 
 1.9645380e-002  2.0019990e-001 -4.3970905e-004  7.3830285e-003  7.3961108e-003  1.7241484e-003  1.2303489e+000  1.7241484e-003  1.7514996e-003 
 5.9056673e-002  2.0753890e-001 -7.3910006e-003  2.3733897e-002  2.4858093e-002 -1.5979262e-004  1.2422675e+000 -1.5979262e-004  1.4916976e-004 
 9.8761119e-002  2.1493158e-001 -2.0417579e-002  3.8948212e-002  4.3975458e-002 -1.0707832e-003  1.2620631e+000 -1.0707832e-003 -1.0386288e-004 
 1.3887230e-001  2.2239897e-001 -3.7457850e-002  5.2291378e-002  6.4323239e-002 -1.7692345e-003  1.2926298e+000 -1.7692345e-003  2.9950484e-004 
 1.7952156e-001  2.2996542e-001 -5.7516523e-002  6.3584916e-002  8.5739091e-002 -2.4958397e-003  1.3354610e+000 -2.4958397e-003  1.1797562e-003 