Variables = "x","y", "Velocity_x", "Velocity_y", "Velocity_whole value", "Pressure", "Temperature", "Absolute pressure", "Total pressure"
Zone i=22, j=22
 0.0000000e+000  0.0000000e+000  0.0000000e+000  0.0000000e+000  0.0000000e+000 -1.1142167e-003  9.9996364e-001 -1.1142167e-003 -1.1142167e-003 
 8.7298146e-003  0.0000000e+000  0.0000000e+000  0.0000000e+000  0.0000000e+000 -1.1381318e-003  1.0000000e+000 -1.1381318e-003 -1.1381318e-003 
 2.7062416e-002  0.0000000e+000  0.0000000e+000  0.0000000e+000  0.0000000e+000 -1.1882914e-003  1.0000000e+000 -1.1882914e-003 -1.1882914e-003 
 4.7228277e-002  0.0000000e+000  0.0000000e+000  0.0000000e+000  0.0000000e+000 -1.4441994e-003  1.0000000e+000 -1.4441994e-003 -1.4441994e-003 
 6.9410741e-002  0.0000000e+000  0.0000000e+000  0.0000000e+000  0.0000000e+000 -1.9188107e-003  1.0000000e+000 -1.9188107e-003 -1.9188107e-003 
 9.3811467e-002  0.0000000e+000  0.0000000e+000  0.0000000e+000  0.0000000e+000 -2.5068149e-003  1.0000000e+000 -2.5068149e-003 -2.5068149e-003 
 1.2065224e-001  0.0000000e+000  0.0000000e+000  0.0000000e+000  0.0000000e+000 -3.1549793e-003  1.0000000e+000 -3.1549793e-003 -3.1549793e-003 
 1.5017705e-001  0.0000000e+000  0.0000000e+000  0.0000000e+000  0.0000000e+000 -3.8090383e-003  1.0000000e+000 -3.8090383e-003 -3.8090383e-003 
 1.8265435e-001  0.0000000e+000  0.0000000e+000  0.0000000e+000  0.0000000e+000 -4.4155912e-003  1.0000000e+000 -4.4155912e-003 -4.4155912e-003 
 2.1837941e-001  0.0000000e+000  0.0000000e+000  0.0000000e+000  0.0000000e+000 -4.9160942e-003  1.0000000e+000 -4.9160942e-003 -4.9160942e-003 
 2.5767696e-001  0.0000000e+000  0.0000000e+000  0.0000000e+000  0.0000000e+000 -5.2292659e-003  1.0000000e+000 -5.2292659e-003 -5.2292659e-003 
 3.0090424e-001  0.0000000e+000  0.0000000e+000  0.0000000e+000  0.0000000e+000 -5.2252412e-003  1.0000000e+000 -5.2252412e-003 -5.2252412e-003 
 3.4845430e-001  0.0000000e+000  0.0000000e+000  0.0000000e+000  0.0000000e+000 -4.6972609e-003  1.0000000e+000 -4.6972609e-003 -4.6972609e-003 
 4.0075934e-001  0.0000000e+000  0.0000000e+000  0.0000000e+000  0.0000000e+000 -3.3467626e-003  1.0000000e+000 -3.3467626e-003 -3.3467626e-003 
 4.5829487e-001  0.0000000e+000  0.0000000e+000  0.0000000e+000  0.0000000e+000 -8.1764755e-004  1.0000000e+000 -8.1764755e-004 -8.1764755e-004 
 5.2158397e-001  0.0000000e+000  0.0000000e+000  0.0000000e+000  0.0000000e+000  3.1530978e-003  1.0000000e+000  3.1530978e-003  3.1530978e-003 
 5.9120196e-001  0.0000000e+000  0.0000000e+000  0.0000000e+000  0.0000000e+000  8.3854031e-003  1.0000000e+000  8.3854031e-003  8.3854031e-003 
 6.6778171e-001  0.0000000e+000  0.0000000e+000  0.0000000e+000  0.0000000e+000  1.3716599e-002  1.0000000e+000  1.3716599e-002  1.3716599e-002 
 7.5201952e-001  0.0000000e+000  0.0000000e+000  0.0000000e+000  0.0000000e+000  1.6815219e-002  1.0000000e+000  1.6815219e-002  1.6815219e-002 
 8.4468120e-001  0.0000000e+000  0.0000000e+000  0.0000000e+000  0.0000000e+000  1.5984386e-002  1.0000000e+000  1.5984386e-002  1.5984386e-002 
 9.4660914e-001  0.0000000e+000  0.0000000e+000  0.0000000e+000  0.0000000e+000  1.1065231e-002  1.0000000e+000  1.1065231e-002  1.1065231e-002 
 1.0000000e+000  0.0000000e+000  0.0000000e+000  0.0000000e+000  0.0000000e+000  8.4903967e-003  1.0007337e+000  8.4903967e-003  8.4903967e-003 
 0.0000000e+000  7.8568254e-003  0.0000000e+000  0.0000000e+000  0.0000000e+000 -1.1014784e-003  1.0158720e+000 -1.1014784e-003 -1.1014784e-003 
 9.1655646e-003  7.9974197e-003  3.4912231e-005 -2.4728872e-005  4.2782951e-005 -1.1296322e-003  1.0161933e+000 -1.1296322e-003 -1.1296313e-003 
 2.8340746e-002  8.2905451e-003  1.1773158e-004 -3.9830822e-005  1.2428685e-004 -1.1885326e-003  1.0168654e+000 -1.1885326e-003 -1.1885249e-003 
 4.9293049e-002  8.6088702e-003  1.6842339e-004 -3.1740761e-005  1.7138819e-004 -1.4403876e-003  1.0176947e+000 -1.4403876e-003 -1.4403729e-003 
 7.2208665e-002  8.9551620e-003  9.3515875e-005 -2.3926614e-005  9.6528245e-005 -1.8806903e-003  1.0187505e+000 -1.8806903e-003 -1.8806857e-003 
 9.7290874e-002  9.3324250e-003 -1.7286635e-004 -1.1346056e-005  1.7323830e-004 -2.4234827e-003  1.0201334e+000 -2.4234827e-003 -2.4234678e-003 
 1.2476175e-001  9.7439121e-003 -6.7777396e-004  3.2811145e-006  6.7778188e-004 -3.0151175e-003  1.0219815e+000 -3.0151175e-003 -3.0148877e-003 
 1.5486389e-001  1.0193158e-002 -1.4663701e-003  1.8830822e-005  1.4664910e-003 -3.6029818e-003  1.0244741e+000 -3.6029818e-003 -3.6019066e-003 
 1.8786250e-001  1.0683995e-002 -2.5863973e-003  3.6051690e-005  2.5866486e-003 -4.1350811e-003  1.0278269e+000 -4.1350811e-003 -4.1317358e-003 
 2.2404735e-001  1.1220587e-002 -4.0929159e-003  5.7350542e-005  4.0933178e-003 -4.5536016e-003  1.0322800e+000 -4.5536016e-003 -4.5452239e-003 
 2.6373515e-001  1.1807458e-002 -6.0484414e-003  8.6882217e-005  6.0490654e-003 -4.7790771e-003  1.0380784e+000 -4.7790771e-003 -4.7607818e-003 
 3.0727196e-001  1.2449508e-002 -8.5104993e-003  1.2981420e-004  8.5114893e-003 -4.6880427e-003  1.0454502e+000 -4.6880427e-003 -4.6518198e-003 
 3.5503575e-001  1.3152053e-002 -1.1494516e-002  1.8940786e-004  1.1496077e-002 -4.0897932e-003  1.0545832e+000 -4.0897932e-003 -4.0237135e-003 
 4.0743941e-001  1.3920853e-002 -1.4894994e-002  2.5975404e-004  1.4897259e-002 -2.7165522e-003  1.0655940e+000 -2.7165522e-003 -2.6055882e-003 
 4.6493360e-001  1.4762145e-002 -1.8348591e-002  3.1223265e-004  1.8351248e-002 -2.5823657e-004  1.0784535e+000 -2.5823657e-004 -8.9852423e-005 
 5.2801025e-001  1.5682675e-002 -2.1049740e-002  2.8048968e-004  2.1051608e-002  3.4999023e-003  1.0928003e+000  3.4999023e-003  3.7214875e-003 
 5.9720570e-001  1.6689727e-002 -2.1631964e-002  6.9674868e-005  2.1632075e-002  8.3646858e-003  1.1076542e+000  8.3646858e-003  8.5986592e-003 
 6.7310452e-001  1.7791158e-002 -1.8498490e-002 -3.4466881e-004  1.8501701e-002  1.3255875e-002  1.1209671e+000  1.3255875e-002  1.3427031e-002 
 7.5634366e-001  1.8995419e-002 -1.1244703e-002 -6.9355429e-004  1.1266071e-002  1.6058382e-002  1.1294940e+000  1.6058382e-002  1.6121844e-002 
 8.4761608e-001  2.0311594e-002 -2.1910251e-003 -5.2663963e-004  2.2534286e-003  1.5300058e-002  1.1305208e+000  1.5300058e-002  1.5302597e-002 
 9.4767547e-001  2.1749418e-002  2.3883639e-003  2.4866548e-004  2.4012739e-003  1.0815921e-002  1.1271625e+000  1.0815921e-002  1.0818805e-002 
 1.0000000e+000  2.2500001e-002  0.0000000e+000  0.0000000e+000  0.0000000e+000  8.4710103e-003  1.1254063e+000  8.4710103e-003  8.4710103e-003 
 0.0000000e+000  2.4356160e-002  0.0000000e+000  0.0000000e+000  0.0000000e+000 -1.0745908e-003  1.0493674e+000 -1.0745908e-003 -1.0745908e-003 
 1.0081252e-002  2.4797758e-002  7.5540040e-005 -1.1287687e-004  1.3582152e-004 -1.1117769e-003  1.0504041e+000 -1.1117769e-003 -1.1117677e-003 
 3.1027419e-002  2.5714323e-002  1.8498670e-004 -1.1358788e-004  2.1707668e-004 -1.1890396e-003  1.0525578e+000 -1.1890396e-003 -1.1890160e-003 
 5.3632375e-002  2.6701592e-002  8.0426769e-005  3.8554001e-005  8.9190115e-005 -1.4323766e-003  1.0552514e+000 -1.4323766e-003 -1.4323726e-003 
 7.8086242e-002  2.7767781e-002 -4.4888290e-004  2.6615727e-004  5.2185776e-004 -1.8006091e-003  1.0587212e+000 -1.8006091e-003 -1.8004728e-003 
 1.0459413e-001  2.8921748e-002 -1.5672410e-003  5.3859601e-004  1.6572055e-003 -2.2485640e-003  1.0633085e+000 -2.2485640e-003 -2.2471908e-003 
 1.3337748e-001  3.0173028e-002 -3.4098623e-003  8.3418144e-004  3.5104158e-003 -2.7218843e-003  1.0694669e+000 -2.7218843e-003 -2.7157229e-003 
 1.6467522e-001  3.1531900e-002 -6.0992176e-003  1.1436909e-003  6.2055206e-003 -3.1716176e-003  1.0777581e+000 -3.1716176e-003 -3.1523635e-003 
 1.9874528e-001  3.3009436e-002 -9.7595165e-003  1.4670590e-003  9.8691657e-003 -3.5489248e-003  1.0888249e+000 -3.5489248e-003 -3.5002246e-003 
 2.3586589e-001  3.4617558e-002 -1.4520315e-002  1.8067565e-003  1.4632289e-002 -3.7977407e-003  1.1033441e+000 -3.7977407e-003 -3.6906886e-003 
 2.7633727e-001  3.6369104e-002 -2.0499466e-002  2.1566334e-003  2.0612597e-002 -3.8426036e-003  1.1219648e+000 -3.8426036e-003 -3.6301641e-003 
 3.2048279e-001  3.8277857e-002 -2.7746409e-002  2.4832236e-003  2.7857307e-002 -3.5735427e-003  1.1452444e+000 -3.5735427e-003 -3.1855279e-003 
 3.6865059e-001  4.0358640e-002 -3.6120716e-002  2.6975274e-003  3.6221303e-002 -2.8331676e-003  1.1735891e+000 -2.8331676e-003 -2.1771761e-003 
 4.2121512e-001  4.2627338e-002 -4.5081571e-002  2.6201992e-003  4.5157652e-002 -1.4169710e-003  1.2071635e+000 -1.4169710e-003 -3.9736423e-004 
 4.7857836e-001  4.5100968e-002 -5.3392369e-002  1.9595611e-003  5.3428315e-002  8.9146534e-004  1.2456590e+000  8.9146534e-004  2.3187578e-003 
 5.4117143e-001  4.7797713e-002 -5.8837730e-002  3.6183512e-004  5.8838844e-002  4.2100996e-003  1.2877523e+000  4.2100996e-003  5.9411041e-003 
 6.0945523e-001  5.0736964e-002 -5.8274303e-002 -2.3461946e-003  5.8321513e-002  8.3224215e-003  1.3303425e+000  8.3224215e-003  1.0023121e-002 
 6.8392193e-001  5.3939339e-002 -4.8717204e-002 -5.5990033e-003  4.9037892e-002  1.2319755e-002  1.3673680e+000  1.2319755e-002  1.3522112e-002 
 7.6509541e-001  5.7426691e-002 -3.0202171e-002 -7.5060031e-003  3.1120913e-002  1.4527130e-002  1.3897853e+000  1.4527130e-002  1.5011385e-002 
 8.5353154e-001  6.1222117e-002 -8.5739996e-003 -5.6973770e-003  1.0294347e-002  1.3921699e-002  1.3907750e+000  1.3921699e-002  1.3974686e-002 
 9.4981837e-001  6.5349922e-002  2.6493145e-003 -9.0186826e-005  2.6508491e-003  1.0316133e-002  1.3796585e+000  1.0316133e-002  1.0319647e-002 
 1.0000000e+000  6.7500025e-002  0.0000000e+000  0.0000000e+000  0.0000000e+000  8.4370309e-003  1.3738649e+000  8.4370309e-003  8.4370309e-003 
 0.0000000e+000  4.2505443e-002  0.0000000e+000  0.0000000e+000  0.0000000e+000 -8.5730472e-004  1.0860225e+000 -8.5730472e-004 -8.5730472e-004 
 1.1089623e-002  4.3288529e-002  9.0281261e-005 -2.0514702e-004  2.2413391e-004 -9.2670188e-004  1.0878913e+000 -9.2670188e-004 -9.2667673e-004 
 3.3986591e-002  4.4904474e-002  4.5196932e-005 -3.0452709e-005  5.4498902e-005 -1.0699872e-003  1.0917499e+000 -1.0699872e-003 -1.0699857e-003 
 5.8410920e-002  4.6626426e-002 -5.3689012e-004  5.2159873e-004  7.4854272e-004 -1.3253075e-003  1.0966396e+000 -1.3253075e-003 -1.3250273e-003 
 8.4553041e-002  4.8467711e-002 -1.9322340e-003  1.2817866e-003  2.3187292e-003 -1.6764794e-003  1.1030290e+000 -1.6764794e-003 -1.6737911e-003 
 1.1261694e-001  5.0442584e-002 -4.3691043e-003  2.1504434e-003  4.8696487e-003 -2.0733059e-003  1.1115704e+000 -2.0733059e-003 -2.0614492e-003 
 1.4282092e-001  5.2566290e-002 -8.0340123e-003  3.0708630e-003  8.6009046e-003 -2.4680754e-003  1.1230919e+000 -2.4680754e-003 -2.4310877e-003 
 1.7539835e-001  5.4855127e-002 -1.3092900e-002  4.0173898e-003  1.3695381e-002 -2.8182936e-003  1.1385614e+000 -2.8182936e-003 -2.7245120e-003 
 2.1059832e-001  5.7326466e-002 -1.9702533e-002  4.9799378e-003  2.0322146e-002 -3.0815634e-003  1.1590178e+000 -3.0815634e-003 -2.8750687e-003 
 2.4868645e-001  5.9998818e-002 -2.7999705e-002  5.9395479e-003  2.8622748e-002 -3.2087492e-003  1.1854737e+000 -3.2087492e-003 -2.7991184e-003 
 2.8994554e-001  6.2891856e-002 -3.8052674e-002  6.8318564e-003  3.8661096e-002 -3.1339978e-003  1.2188109e+000 -3.1339978e-003 -2.3866578e-003 
 3.3467606e-001  6.6026464e-002 -4.9752578e-002  7.4962587e-003  5.0314143e-002 -2.7633167e-003  1.2596889e+000 -2.7633167e-003 -1.4975603e-003 
 3.8319665e-001  6.9424756e-002 -6.2623069e-002  7.6153092e-003  6.3084401e-002 -1.9651728e-003  1.3084584e+000 -1.9651728e-003  2.4648012e-005 
 4.3584439e-001  7.3110089e-002 -7.5545199e-002  6.6680475e-003  7.5838909e-002 -5.7099317e-004  1.3650093e+000 -5.7099317e-004  2.3047768e-003 
 4.9297482e-001  7.7107042e-002 -8.6448446e-002  3.9602509e-003  8.6539112e-002  1.5962145e-003  1.4283223e+000  1.5962145e-003  5.3407233e-003 
 5.5496168e-001  8.1441432e-002 -9.2143819e-002 -1.1352102e-003  9.2150815e-002  4.6269442e-003  1.4956863e+000  4.6269442e-003  8.8728303e-003 
 6.2219632e-001  8.6140215e-002 -8.8689327e-002 -8.5418457e-003  8.9099720e-002  8.3126305e-003  1.5616082e+000  8.3126305e-003  1.2282010e-002 
 6.9508660e-001  9.1231406e-002 -7.2950788e-002 -1.6395781e-002  7.4770577e-002  1.1823001e-002  1.6163795e+000  1.1823001e-002  1.4618321e-002 
 7.7405536e-001  9.6744023e-002 -4.5844227e-002 -2.0299455e-002  5.0137423e-002  1.3672436e-002  1.6468590e+000  1.3672436e-002  1.4929316e-002 
 8.5953850e-001  1.0270783e-001 -1.5236258e-002 -1.5353887e-002  2.1630660e-002  1.3045188e-002  1.6444210e+000  1.3045188e-002  1.3279131e-002 
 9.5198196e-001  1.0915315e-001  1.6572250e-003 -1.9481794e-003  2.5576937e-003  9.3633784e-003  1.6237980e+000  9.3633784e-003  9.3666492e-003 
 1.0000000e+000  1.1250003e-001  0.0000000e+000  0.0000000e+000  0.0000000e+000  7.4509326e-003  1.6130857e+000  7.4509326e-003  7.4509326e-003 
 0.0000000e+000  6.2469624e-002  0.0000000e+000  0.0000000e+000  0.0000000e+000 -4.3511123e-004  1.1259345e+000 -4.3511123e-004 -4.3511123e-004 
 1.2199646e-002  6.3635968e-002  8.9727764e-005 -1.9092827e-004  2.1096131e-004 -5.6806183e-004  1.1287550e+000 -5.6806183e-004 -5.6803960e-004 
 3.7244145e-002  6.6029504e-002 -3.1604237e-004  4.7917772e-004  5.7401572e-004 -8.4099360e-004  1.1345452e+000 -8.4099360e-004 -8.4082887e-004 
 6.3669339e-002  6.8553321e-002 -1.7494801e-003  1.8025030e-003  2.5119111e-003 -1.1410190e-003  1.1420192e+000 -1.1410190e-003 -1.1378642e-003 
 9.1662116e-002  7.1225137e-002 -4.4782711e-003  3.4672131e-003  5.6636101e-003 -1.4927817e-003  1.1519715e+000 -1.4927817e-003 -1.4767435e-003 
 1.2142216e-001  7.4063897e-002 -8.7414514e-003  5.2903309e-003  1.0217660e-002 -1.8555446e-003  1.1654528e+000 -1.8555446e-003 -1.8033443e-003 
 1.5316203e-001  7.7089757e-002 -1.4730627e-002  7.1694227e-003  1.6382674e-002 -2.1889161e-003  1.1837136e+000 -2.1889161e-003 -2.0547202e-003 
 1.8710735e-001  8.0324106e-002 -2.2605097e-002  9.0530217e-003  2.4350515e-002 -2.4611487e-003  1.2081099e+000 -2.4611487e-003 -2.1646749e-003 
 2.2349687e-001  8.3789557e-002 -3.2492779e-002  1.0900757e-002  3.4272544e-002 -2.6421067e-003  1.2399709e+000 -2.6421067e-003 -2.0548031e-003 
 2.6258245e-001  8.7509975e-002 -4.4456441e-002  1.2629205e-002  4.6215493e-002 -2.6958843e-003  1.2804488e+000 -2.6958843e-003 -1.6279484e-003 
 3.0462897e-001  9.1510408e-002 -5.8410257e-002  1.4042096e-002  6.0074441e-002 -2.5715046e-003  1.3303841e+000 -2.5715046e-003 -7.6703524e-004 
 3.4991401e-001  9.5817111e-002 -7.3971555e-002  1.4749479e-002  7.5427704e-002 -2.1914772e-003  1.3902053e+000 -2.1914772e-003  6.5319182e-004 
 3.9872754e-001  1.0045744e-001 -9.0242863e-002  1.4096621e-002  9.1337226e-002 -1.4400141e-003  1.4598180e+000 -1.4400141e-003  2.7312303e-003 
 4.5137095e-001  1.0545985e-001 -1.0554948e-001  1.1154445e-002  1.0613725e-001 -1.5786711e-004  1.5383502e+000 -1.5786711e-004  5.4746903e-003 
 5.0815618e-001  1.1085375e-001 -1.1721814e-001  4.8780758e-003  1.1731960e-001  1.8357775e-003  1.6234723e+000  1.8357775e-003  8.7177223e-003 
 5.6940413e-001  1.1666930e-001 -1.2158510e-001 -5.3929985e-003  1.2170465e-001  4.6485579e-003  1.7106751e+000  4.6485579e-003  1.2054568e-002 
 6.3544285e-001  1.2293732e-001 -1.1457099e-001 -1.8913852e-002  1.1612169e-001  8.0924463e-003  1.7922089e+000  8.0924463e-003  1.4834569e-002 
 7.0660520e-001  1.2968905e-001 -9.3342729e-002 -3.2079373e-002  9.8701321e-002  1.1356330e-002  1.8561311e+000  1.1356330e-002  1.6227305e-002 
 7.8322577e-001  1.3695575e-001 -5.9424270e-002 -3.7743784e-002  7.0397705e-002  1.3004129e-002  1.8882771e+000  1.3004129e-002  1.5482048e-002 
 8.6563706e-001  1.4476848e-001 -2.1567088e-002 -2.8496809e-002  3.5738040e-002  1.2268830e-002  1.8807132e+000  1.2268830e-002  1.2907434e-002 
 9.5416594e-001  1.5315762e-001  6.1402941e-004 -5.5465219e-003  5.5804066e-003  8.0772545e-003  1.8514537e+000  8.0772545e-003  8.0928253e-003 
 1.0000000e+000  1.5750006e-001  0.0000000e+000  0.0000000e+000  0.0000000e+000  5.9071532e-003  1.8363051e+000  5.9071532e-003  5.9071532e-003 
 0.0000000e+000  8.4430233e-002  0.0000000e+000  0.0000000e+000  0.0000000e+000  1.5560920e-004  1.1691334e+000  1.5560920e-004  1.5560920e-004 
 1.3421068e-002  8.6021885e-002  7.2376148e-005  6.0025988e-005  9.4028859e-005 -7.3982512e-005  1.1730257e+000 -7.3982512e-005 -7.3978088e-005 
 4.0827978e-002  8.9271411e-002 -9.3921309e-004  1.7495800e-003  1.9857371e-003 -5.4282590e-004  1.1809741e+000 -5.4282590e-004 -5.4085435e-004 
 6.9450945e-002  9.2663564e-002 -3.6571266e-003  4.3484932e-003  5.6818984e-003 -9.1461354e-004  1.1915067e+000 -9.1461354e-004 -8.9847157e-004 
 9.9469364e-002  9.6219473e-002 -8.2356781e-003  7.3665180e-003  1.1049524e-002 -1.2806291e-003  1.2058779e+000 -1.2806291e-003 -1.2195831e-003 
 1.3107528e-001  9.9961758e-002 -1.4854468e-002  1.0527630e-002  1.8206764e-002 -1.6228047e-003  1.2256262e+000 -1.6228047e-003 -1.4570615e-003 
 1.6447277e-001  1.0391445e-001 -2.3649534e-002  1.3680193e-002  2.7321203e-002 -1.9136475e-003  1.2524275e+000 -1.9136475e-003 -1.5404235e-003 
 1.9987759e-001  1.0810297e-001 -3.4710620e-002  1.6734470e-002  3.8534004e-002 -2.1386375e-003  1.2879134e+000 -2.1386375e-003 -1.3962027e-003 
 2.3751657e-001  1.1255403e-001 -4.8066128e-002  1.9586023e-002  5.1903419e-002 -2.2860209e-003  1.3334669e+000 -2.2860209e-003 -9.3903841e-004 
 2.7762684e-001  1.1729555e-001 -6.3625053e-002  2.2025514e-002  6.7329571e-002 -2.3373938e-003  1.3900355e+000 -2.3373938e-003 -7.0758520e-005 
 3.2045519e-001  1.2235657e-001 -8.1068330e-002  2.3640759e-002  8.4445007e-002 -2.2570624e-003  1.4580005e+000 -2.2570624e-003  1.3084174e-003 
 3.6625680e-001  1.2776710e-001 -9.9689290e-002  2.3728298e-002  1.0247432e-001 -1.9774968e-003  1.5370823e+000 -1.9774968e-003  3.2729965e-003 
 4.1529411e-001  1.3355795e-001 -1.1819604e-001  2.1252586e-002  1.2009154e-001 -1.3821350e-003  1.6261859e+000 -1.3821350e-003  5.8288532e-003 
 4.6783528e-001  1.3976060e-001 -1.3451742e-001  1.4927844e-002  1.3534318e-001 -2.9486103e-004  1.7229697e+000 -2.9486103e-004  8.8640265e-003 
 5.2415228e-001  1.4640701e-001 -1.4569502e-001  3.5467437e-003  1.4573818e-001  1.4977625e-003  1.8233407e+000  1.4977625e-003  1.2117571e-002 
 5.8451855e-001  1.5352920e-001 -1.4800258e-001 -1.3273682e-002  1.4859661e-001  4.1390592e-003  1.9210461e+000  4.1390592e-003  1.5179536e-002 
 6.4920622e-001  1.6115899e-001 -1.3753362e-001 -3.3794515e-002  1.4162473e-001  7.4588242e-003  2.0072105e+000  7.4588242e-003  1.7487608e-002 
 7.1848279e-001  1.6932768e-001 -1.1169611e-001 -5.2495517e-002  1.2341718e-001  1.0635042e-002  2.0704265e+000  1.0635042e-002  1.8250942e-002 
 7.9260749e-001  1.7806542e-001 -7.2084911e-002 -5.9526145e-002  9.3485810e-002  1.2219686e-002  2.0992086e+000  1.2219686e-002  1.6589485e-002 
 8.7182689e-001  1.8740095e-001 -2.7654422e-002 -4.5024991e-002  5.2839540e-002  1.1391588e-002  2.0878460e+000  1.1391588e-002  1.2787596e-002 
 9.5637006e-001  1.9736084e-001 -2.9874980e-004 -1.0861325e-002  1.0865433e-002  6.4770421e-003  2.0537791e+000  6.4770421e-003  6.5360707e-003 
 1.0000000e+000  2.0250005e-001  0.0000000e+000  0.0000000e+000  0.0000000e+000  3.9408137e-003  2.0361984e+000  3.9408137e-003  3.9408137e-003 
 0.0000000e+000  1.0858691e-001  0.0000000e+000  0.0000000e+000  0.0000000e+000  8.6070492e-004  1.2155678e+000  8.6070492e-004  8.6070492e-004 
 1.4764465e-002  1.1064483e-001  2.9399951e-005  7.0828415e-004  7.0889405e-004  5.0097506e-004  1.2206547e+000  5.0097506e-004  5.0122634e-004 
 4.4768069e-002  1.1482611e-001 -1.8849579e-003  4.1874750e-003  4.5921686e-003 -2.3004750e-004  1.2309921e+000 -2.3004750e-004 -2.1950349e-004 
 7.5801648e-002  1.1914948e-001 -6.3795038e-003  8.7091485e-003  1.0795709e-002 -6.9839117e-004  1.2451982e+000 -6.9839117e-004 -6.4011751e-004 
 1.0803317e-001  1.2363825e-001 -1.3354187e-002  1.3589152e-002  1.9052543e-002 -1.0952527e-003  1.2651583e+000 -1.0952527e-003 -9.1375300e-004 
 1.4164367e-001  1.2831748e-001 -2.2841454e-002  1.8465970e-002  2.9372165e-002 -1.4396806e-003  1.2929541e+000 -1.4396806e-003 -1.0083185e-003 
 1.7682612e-001  1.3321388e-001 -3.4850433e-002  2.3143638e-002  4.1835159e-002 -1.7252798e-003  1.3305790e+000 -1.7252798e-003 -8.5018948e-004 
 2.1378432e-001  1.3835572e-001 -4.9333133e-002  2.7477879e-002  5.6469388e-002 -1.9616971e-003  1.3796556e+000 -1.9616971e-003 -3.6730120e-004 
 2.5273174e-001  1.4377262e-001 -6.6152461e-002  3.1255569e-002  7.3164597e-002 -2.1596700e-003  1.4411839e+000 -2.1596700e-003  5.1685935e-004 
 2.9389021e-001  1.4949527e-001 -8.5006125e-002  3.4074403e-002  9.1581143e-002 -2.3180968e-003  1.5153723e+000 -2.3180968e-003  1.8754563e-003 
 3.3748841e-001  1.5555537e-001 -1.0531369e-001  3.5239551e-002  1.1105314e-001 -2.4102624e-003  1.6015590e+000 -2.4102624e-003  3.7561371e-003 
 3.8376006e-001  1.6198532e-001 -1.2607731e-001  3.3703361e-002  1.3050443e-001 -2.3645947e-003  1.6981225e+000 -2.3645947e-003  6.1511076e-003 
 4.3294221e-001  1.6881791e-001 -1.4573830e-001  2.8096536e-002  1.4842193e-001 -2.0423990e-003  1.8022138e+000 -2.0423990e-003  8.9721354e-003 
 4.8527274e-001  1.7608595e-001 -1.6206264e-001  1.6927812e-002  1.6294432e-001 -1.2263973e-003  1.9096121e+000 -1.2263973e-003  1.2049029e-002 
 5.4098821e-001  1.8382223e-001 -1.7210217e-001 -9.3278347e-004  1.7210470e-001  3.4881613e-004  2.0146906e+000  3.4881613e-004  1.5158829e-002 
 6.0032070e-001  1.9205883e-001 -1.7230576e-001 -2.5339449e-002  1.7415902e-001  2.8706561e-003  2.1104827e+000  2.8706561e-003  1.8036338e-002 
 6.6349423e-001  2.0082660e-001 -1.5895170e-001 -5.3413484e-002  1.6768615e-001  6.1864704e-003  2.1892111e+000  6.1864704e-003  2.0245792e-002 
 7.3072171e-001  2.1015488e-001 -1.2937389e-001 -7.7743545e-002  1.5093596e-001  9.4513604e-003  2.2435498e+000  9.4513604e-003  2.0842193e-002 
 8.0220026e-001  2.2007078e-001 -8.4714800e-002 -8.5849099e-002  1.2060956e-001  1.1162679e-002  2.2672315e+000  1.1162679e-002  1.8436011e-002 
 8.7810695e-001  2.3059860e-001 -3.3810448e-002 -6.5246888e-002  7.3486753e-002  1.0330313e-002  2.2563777e+000  1.0330313e-002  1.3030464e-002 
 9.5859408e-001  2.4175918e-001 -1.1455561e-003 -1.7950408e-002  1.7986925e-002  4.5415373e-003  2.2234273e+000  4.5415373e-003  4.7033019e-003 
 1.0000000e+000  2.4750000e-001  0.0000000e+000  0.0000000e+000  0.0000000e+000  1.5635532e-003  2.2064762e+000  1.5635532e-003  1.5635532e-003 
 0.0000000e+000  1.3515925e-001  0.0000000e+000  0.0000000e+000  0.0000000e+000  1.6001490e-003  1.2650949e+000  1.6001490e-003  1.6001490e-003 
 1.6241265e-002  1.3772133e-001 -5.4515342e-005  1.9606904e-003  1.9614480e-003  1.0770446e-003  1.2715101e+000  1.0770446e-003  1.0789683e-003 
 4.9096450e-002  1.4290360e-001 -3.2277079e-003  8.2816584e-003  8.8884179e-003  1.8836889e-005  1.2844878e+000  1.8836889e-005  5.8338872e-005 
 8.2769677e-002  1.4821360e-001 -1.0036725e-002  1.5502176e-002  1.8467629e-002 -5.6996226e-004  1.3031999e+000 -5.6996226e-004 -3.9943561e-004 
 1.1741382e-001  1.5367535e-001 -1.9946892e-002  2.2770846e-002  3.0271932e-002 -1.0206770e-003  1.3303453e+000 -1.0206770e-003 -5.6248205e-004 
 1.5319572e-001  1.5931498e-001 -3.2743223e-002  2.9679215e-002  4.4192471e-002 -1.4077115e-003  1.3684933e+000 -1.4077115e-003 -4.3122433e-004 
 1.9029470e-001  1.6516066e-001 -4.8234798e-002  3.6004458e-002  6.0190670e-002 -1.7545703e-003  1.4196321e+000 -1.7545703e-003  5.6888068e-005 
 2.2890085e-001  1.7124225e-001 -6.6176049e-002  4.1530617e-002  7.8128494e-002 -2.0998928e-003  1.4848237e+000 -2.0998928e-003  9.5213798e-004 
 2.6921326e-001  1.7759100e-001 -8.6220458e-002  4.5890037e-002  9.7672224e-002 -2.4765034e-003  1.5639956e+000 -2.4765034e-003  2.2934282e-003 
 3.1143817e-001  1.8423927e-001 -1.0784069e-001  4.8437163e-002  1.1821917e-001 -2.8941128e-003  1.6558880e+000 -2.8941128e-003  4.0937737e-003 
 3.5578674e-001  1.9122028e-001 -1.3023202e-001  4.8174657e-002  1.3885668e-001 -3.3219503e-003  1.7580705e+000 -3.3219503e-003  6.3186381e-003 
 4.0247288e-001  1.9856757e-001 -1.5221493e-001  4.3757297e-002  1.5837957e-001 -3.6654116e-003  1.8667653e+000 -3.6654116e-003  8.8766310e-003 
 4.5171070e-001  2.0631473e-001 -1.7214945e-001  3.3613328e-002  1.7540036e-001 -3.7421614e-003  1.9772273e+000 -3.7421614e-003  1.1640483e-002 
 5.0371194e-001  2.1449493e-001 -1.8786758e-001  1.6245276e-002  1.8856865e-001 -3.2745616e-003  2.0838475e+000 -3.2745616e-003  1.4504507e-002 
 5.5868274e-001  2.2314055e-001 -1.9662669e-001 -9.1944868e-003  1.9684155e-001 -1.9318130e-003  2.1805580e+000 -1.9318130e-003  1.7441485e-002 
 6.1682063e-001  2.3228255e-001 -1.9510792e-001 -4.1911718e-002  1.9955875e-001  5.2800216e-004  2.2618785e+000  5.2800216e-004  2.0439848e-002 
 6.7831069e-001  2.4194986e-001 -1.7961647e-001 -7.7914961e-002  1.9578768e-001  3.9830813e-003  2.3239703e+000  3.9830813e-003  2.3149488e-002 
 7.4332166e-001  2.5216886e-001 -1.4706516e-001 -1.0802431e-001  1.8247579e-001  7.5674145e-003  2.3658581e+000  7.5674145e-003  2.4216121e-002 
 8.1200206e-001  2.6296273e-001 -9.7765483e-002 -1.1711612e-001  1.5255909e-001  9.6783312e-003  2.3865595e+000  9.6783312e-003  2.1315468e-002 
 8.8447577e-001  2.7435076e-001 -4.0296450e-002 -8.9652754e-002  9.8292522e-002  9.0125054e-003  2.3820543e+000  9.0125054e-003  1.3843216e-002 
 9.6083736e-001  2.8634772e-001 -2.0386477e-003 -2.7021896e-002  2.7098689e-002  2.2603844e-003  2.3565910e+000  2.2603844e-003  2.6275539e-003 
 1.0000000e+000  2.9249996e-001  0.0000000e+000  0.0000000e+000  0.0000000e+000 -1.2024876e-003  2.3435318e+000 -1.2024876e-003 -1.2024876e-003 
 0.0000000e+000  1.6438885e-001  0.0000000e+000  0.0000000e+000  0.0000000e+000  2.2563757e-003  1.3174772e+000  2.2563757e-003  2.2563757e-003 
 1.7863810e-002  1.6748740e-001 -2.0160383e-004  4.0794523e-003  4.0844306e-003  1.5385943e-003  1.3253793e+000  1.5385943e-003  1.5469355e-003 
 5.3847261e-002  1.7372830e-001 -5.0439630e-003  1.4595041e-002  1.5442046e-002  9.2755443e-005  1.3412964e+000  9.2755443e-005  2.1198383e-004 
 9.0405449e-002  1.8006775e-001 -1.4715392e-002  2.5376644e-002  2.9334567e-002 -6.4164062e-004  1.3656536e+000 -6.4164062e-004 -2.1138221e-004 
 1.2767288e-001  1.8652900e-001 -2.8032502e-002  3.5512310e-002  4.5243181e-002 -1.1839340e-003  1.4020873e+000 -1.1839340e-003 -1.6046139e-004 
 1.6579956e-001  1.9313787e-001 -4.4432018e-002  4.4632792e-002  6.2978491e-002 -1.6835930e-003  1.4533579e+000 -1.6835930e-003  2.9955216e-004 
 2.0494908e-001  1.9992268e-001 -6.3462153e-002  5.2524444e-002  8.2378775e-002 -2.2004526e-003  1.5207772e+000 -2.2004526e-003  1.1926785e-003 
 2.4529652e-001  2.0691371e-001 -8.4643729e-002  5.8889184e-002  1.0311400e-001 -2.8018591e-003  1.6039542e+000 -2.8018591e-003  2.5143893e-003 
 2.8702617e-001  2.1414275e-001 -1.0741662e-001  6.3175380e-002  1.2461725e-001 -3.5356416e-003  1.7008065e+000 -3.5356416e-003  4.2290883e-003 
 3.3032888e-001  2.2164279e-001 -1.3106896e-001  6.4485416e-002  1.4607342e-001 -4.4090413e-003  1.8077350e+000 -4.4090413e-003  6.2596793e-003 
 3.7539962e-001  2.2944757e-001 -1.5466936e-001  6.1567970e-002  1.6647290e-001 -5.3692907e-003  1.9196577e+000 -5.3692907e-003  8.4873224e-003 
 4.2243472e-001  2.3759100e-001 -1.7701001e-001  5.2901611e-002  1.8474612e-001 -6.2787025e-003  2.0310013e+000 -6.2787025e-003  1.0786860e-002 
 4.7162890e-001  2.4610670e-001 -1.9655332e-001  3.6889739e-002  1.9998515e-001 -6.8924362e-003  2.1358724e+000 -6.8924362e-003  1.3104594e-002 
 5.2317214e-001  2.5502750e-001 -2.1136093e-001  1.2209250e-002  2.1171327e-001 -6.8572606e-003  2.2286537e+000 -6.8572606e-003  1.5553994e-002 
 5.7724625e-001  2.6438484e-001 -2.1897493e-001 -2.1595825e-002  2.2003727e-001 -5.7621500e-003  2.3050859e+000 -5.7621500e-003  1.8446051e-002 
 6.3402182e-001  2.7420813e-001 -2.1625833e-001 -6.3102916e-002  2.2527681e-001 -3.2885226e-003  2.3636124e+000 -3.2885226e-003  2.2086300e-002 
 6.9365394e-001  2.8452411e-001 -1.9937135e-001 -1.0734986e-001  2.2643526e-001  4.9940834e-004  2.4060485e+000  4.9940834e-004  2.6135873e-002 
 7.5627869e-001  2.9535627e-001 -1.6457121e-001 -1.4353062e-001  2.1836832e-001  4.7223074e-003  2.4372959e+000  4.7223074e-003  2.8564669e-002 
 8.2200903e-001  3.0672404e-001 -1.1110205e-001 -1.5375631e-001  1.8969625e-001  7.6184482e-003  2.4596756e+000  7.6184482e-003  2.5610782e-002 
 8.9093089e-001  3.1864220e-001 -4.7148503e-002 -1.1879915e-001  1.2781322e-001  7.3954961e-003  2.4668238e+000  7.3954961e-003  1.5563606e-002 
 9.6309930e-001  3.3112013e-001 -3.0579127e-003 -3.8397387e-002  3.8518958e-002 -3.2203726e-004  2.4540198e+000 -3.2203726e-004  4.1981781e-004 
 1.0000000e+000  3.3749992e-001  0.0000000e+000  0.0000000e+000  0.0000000e+000 -4.2681084e-003  2.4474728e+000 -4.2681084e-003 -4.2681084e-003 
 0.0000000e+000  1.9654140e-001  0.0000000e+000  0.0000000e+000  0.0000000e+000  2.6632468e-003  1.3723823e+000  2.6632468e-003  2.6632468e-003 
 1.9645380e-002  2.0019990e-001 -4.3970963e-004  7.3830308e-003  7.3961131e-003  1.7241553e-003  1.3819710e+000  1.7241553e-003  1.7515065e-003 
 5.9056673e-002  2.0753890e-001 -7.3910030e-003  2.3733899e-002  2.4858095e-002 -1.5978573e-004  1.4012073e+000 -1.5978573e-004  1.4917670e-004 
 9.8761119e-002  2.1493158e-001 -2.0417580e-002  3.8948212e-002  4.3975458e-002 -1.0707752e-003  1.4327247e+000 -1.0707752e-003 -1.0385481e-004 
 1.3887230e-001  2.2239897e-001 -3.7457846e-002  5.2291378e-002  6.4323232e-002 -1.7692273e-003  1.4810251e+000 -1.7692273e-003  2.9951191e-004 
 1.7952156e-001  2.2996542e-001 -5.7516523e-002  6.3584916e-002  8.5739091e-002 -2.4958265e-003  1.5483413e+000 -2.4958265e-003  1.1797695e-003 